
# ------------------------ INITIALIZATION ----------------------------
clear
variable        latt0 equal 4.05000018187522  ### provide the lattice constant from your calculation
variable        lblock  equal 10

units           metal
atom_style      atomic
boundary        p  p  p
newton          off  off
processors      *  *  *


# ---------- STRUCTURE GENERATION ---------------------
lattice         fcc  ${latt0}  orient  x  1  0  0  orient  y  0  1  0  orient  z  0  0  1  origin  0.0    0.0    0.0
lattice         fcc  4.05000018187522  orient  x  1  0  0  orient  y  0  1  0  orient  z  0  0  1  origin  0.0    0.0    0.0
Lattice spacing in x,y,z = 4.0500002 4.0500002 4.0500002
region          sim_region  block  0  ${lblock}  0  ${lblock}  0  ${lblock}  units  lattice
region          sim_region  block  0  10  0  ${lblock}  0  ${lblock}  units  lattice
region          sim_region  block  0  10  0  10  0  ${lblock}  units  lattice
region          sim_region  block  0  10  0  10  0  10  units  lattice
create_box      1  sim_region
Created orthogonal box = (0.0000000 0.0000000 0.0000000) to (40.500002 40.500002 40.500002)
  1 by 2 by 5 MPI processor grid
create_atoms    1  box
Created 4000 atoms
  using lattice units in orthogonal box = (0.0000000 0.0000000 0.0000000) to (40.500002 40.500002 40.500002)
  create_atoms CPU = 0.000 seconds


# ------------------------ FORCE FIELDS ------------------------------
pair_style      eam/alloy ### TYPE OF POTENTIAL (eam (OR) eam/alloy)
pair_coeff      *  * /home03/nm95xule/TMS_SS2022Nan/Mishin_updated-Al-Co-2013.eam.alloy Al  ### POTENTIAL FILENAME

variable        natoms equal "count(all)"
variable        ecoh equal "pe/v_natoms"


# ------------------------- SETTINGS ---------------------------------
neighbor     	2.0 bin
neigh_modify 	delay 3
timestep 	$t
timestep 	0.0005
thermo 		1
thermo_style 	custom step time temp etotal press pxx pyy pzz pxy pyz pxz lx ly lz fnorm v_ecoh

velocity 	all create 300.0 16723 rot yes dist gaussian


#--------------- ENERGY EQUILIBRATION --------------------------
fix 		2 all temp/rescale 10 300.0 300.0 1.0 0.5
fix 		1 all nve

run 		$r
run 		2000
Neighbor list info ...
  update every 1 steps, delay 3 steps, check yes
  max neighbors/atom: 2000, page size: 100000
  master list distance cutoff = 8.499539
  ghost atom cutoff = 8.499539
  binsize = 4.2497695, bins = 10 10 10
  1 neighbor lists, perpetual/occasional/extra = 1 0 0
  (1) pair eam/alloy, perpetual
      attributes: half, newton off
      pair build: half/bin/newtoff
      stencil: full/bin/3d
      bin: standard
Per MPI rank memory allocation (min/avg/max) = 3.486 | 3.486 | 3.487 Mbytes
Step Time Temp TotEng Press Pxx Pyy Pzz Pxy Pyz Pxz Lx Ly Lz Fnorm v_ecoh 
       0            0          300   -13284.927    2493.3961    2492.1088    2488.1545    2499.9249    12.334899    1.2479016   -11.799564    40.500002    40.500002    40.500002 8.9842794e-15        -3.36 
       1       0.0005    299.88358   -13284.927    2494.0354    2492.7653     2488.827    2500.5138    12.332947    1.2457943   -11.791435    40.500002    40.500002    40.500002   0.83581376   -3.3599849 
       2        0.001    299.53455   -13284.927    2496.0537    2494.8351    2490.9449    2502.3809    12.326786    1.2399769   -11.768004    40.500002    40.500002    40.500002    1.6710672   -3.3599398 
       3       0.0015    298.95366   -13284.926    2499.4691    2498.3363    2494.5266    2505.5444    12.317868    1.2307726   -11.728681    40.500002    40.500002    40.500002    2.5052708   -3.3598648 
       4        0.002    298.14211   -13284.926    2504.2638    2503.2505    2499.5539    2509.9869    12.305239    1.2196219   -11.676316    40.500002    40.500002    40.500002    3.3379511   -3.3597599 
       5       0.0025    297.10159   -13284.926    2510.4334    2509.5724    2506.0229    2515.7049    12.290245    1.2055321     -11.6101    40.500002    40.500002    40.500002    4.1686344   -3.3596254 
       6        0.003    295.83425   -13284.926    2517.9719    2517.2958     2513.927     2522.693    12.272782      1.18969   -11.531079    40.500002    40.500002    40.500002     4.996847   -3.3594616 
       7       0.0035    294.34268   -13284.926    2526.8596    2526.4008    2523.2471     2530.931    12.254635    1.1736184   -11.441172    40.500002    40.500002    40.500002    5.8221181   -3.3592688 
       8        0.004    292.62996   -13284.926    2537.0425    2536.8258    2533.9386    2540.3632    12.234711    1.1552602   -11.339471    40.500002    40.500002    40.500002    6.6439605   -3.3590475 
       9       0.0045     290.6996   -13284.926    2548.4723    2548.5158    2545.9654    2550.9355    12.212507    1.1210327   -11.228184    40.500002    40.500002    40.500002    7.4619525    -3.358798 
      10        0.005    294.27776   -13281.968     2608.673    2609.0203    2606.7477     2610.251    12.427935    1.1035824   -11.312493    40.500002    40.500002    40.500002    8.2757616   -3.3585209 
      11       0.0055    291.89992   -13281.968     2622.651    2623.2982     2621.551    2623.1037    12.430933    1.0322891   -11.172664    40.500002    40.500002    40.500002    9.0931291   -3.3582135 
      12        0.006    289.31304   -13281.968    2637.9364    2638.8421    2637.8259    2637.1411    12.411902    0.9547371   -11.015166    40.500002    40.500002    40.500002    9.9059551   -3.3578792 
      13       0.0065    286.52215   -13281.967    2654.6966    2655.7935    2655.7518    2652.5444    12.348324    0.8904169   -10.836142    40.500002    40.500002    40.500002    10.714256   -3.3575185 
      14        0.007    283.53257   -13281.967    2673.2014    2674.4253    2675.5757    2669.6033    12.224092   0.83890657    -10.63236    40.500002    40.500002    40.500002    11.518159   -3.3571321 
      15       0.0075    280.34988   -13281.967    2693.7225    2695.0018     2697.536    2688.6297    12.042442   0.82480575   -10.411951    40.500002    40.500002    40.500002    12.317739   -3.3567208 
      16        0.008    276.97995   -13281.967    2716.5207    2717.7334    2721.9013    2709.9275    11.819101   0.83439917   -10.200011    40.500002    40.500002    40.500002    13.112989   -3.3562852 
      17       0.0085    273.42892   -13281.967    2741.8735    2742.8768    2748.9636    2733.7802    11.594378    0.8589647   -10.012985    40.500002    40.500002    40.500002    13.903881   -3.3558263 
      18        0.009    269.70321   -13281.966    2770.0404    2770.7182    2778.9806    2760.4223    11.397235   0.90822058   -9.8736376    40.500002    40.500002    40.500002    14.690348   -3.3553448 
      19       0.0095    265.80956   -13281.966    2801.2525    2801.4911      2812.18    2790.0863    11.230658   0.98202746   -9.7739494    40.500002    40.500002    40.500002    15.472241   -3.3548416 
      20         0.01    280.87751   -13272.081    2994.6565    2994.8733    3007.1606    2981.9354    11.668845    1.4295271   -10.293573    40.500002    40.500002    40.500002    16.249348   -3.3543175 
      21       0.0105    276.51388   -13272.081    3033.9717    3033.5171    3048.7794    3019.6187     11.55084    1.5502948   -10.270094    40.500002    40.500002    40.500002    17.049344   -3.3537536 
      22        0.011    271.99005   -13272.081    3077.0839    3075.8533     3094.326    3061.0722    11.451674    1.6941444   -10.283971    40.500002    40.500002    40.500002    17.844237   -3.3531689 
      23       0.0115    267.31427   -13272.081    3124.0329    3121.9193    3143.8473    3106.3322    11.364918    1.8736443   -10.349209    40.500002    40.500002    40.500002    18.633556   -3.3525646 
      24        0.012    262.49517    -13272.08     3174.793    3171.6874    3197.3174    3155.3742    11.286493    2.0919872   -10.471786    40.500002    40.500002    40.500002    19.416748   -3.3519418 
      25       0.0125    257.54176    -13272.08     3229.312    3225.1159    3254.6691    3208.1508     11.20127    2.3492294   -10.657985    40.500002    40.500002    40.500002    20.193223   -3.3513016 
      26        0.013    252.46339    -13272.08    3287.5305    3282.1559    3315.8342    3264.6015    11.096616    2.6453276   -10.909884    40.500002    40.500002    40.500002    20.962371   -3.3506452 
      27       0.0135    247.26979   -13272.079    3349.3592    3342.7201    3380.7251    3324.6324    10.966471    2.9787147   -11.224862    40.500002    40.500002    40.500002    21.723546    -3.349974 
      28        0.014    241.97099   -13272.079    3414.6745    3406.6831    3449.2166    3388.1239    10.807958    3.3474342   -11.609724    40.500002    40.500002    40.500002    22.476065   -3.3492892 
      29       0.0145    236.57736   -13272.079    3483.3257    3473.8912    3521.1579     3454.928     10.62413    3.7382714   -12.067918    40.500002    40.500002    40.500002    23.219222   -3.3485921 
      30        0.015    265.54977   -13254.271     3841.454    3832.9096    3881.2067    3810.2456    10.991238    5.4808247   -13.256367    40.500002    40.500002    40.500002    23.952283   -3.3478841 
      31       0.0155    259.58908    -13254.27    3921.8111    3911.4971    3965.3392    3888.5971    10.775042    5.9459644   -13.916567    40.500002    40.500002    40.500002    24.727247   -3.3471137 
      32        0.016    253.54127    -13254.27    4005.5688     3993.376     4052.993    3970.3373    10.562845    6.4376334   -14.652251    40.500002    40.500002    40.500002    25.491347   -3.3463321 
      33       0.0165    247.41851    -13254.27    4092.5015    4078.3246    4143.9422    4055.2376    10.352403    6.9521898   -15.457729    40.500002    40.500002    40.500002    26.243763   -3.3455408 
      34        0.017     241.2332   -13254.269    4182.3624    4166.0965    4237.9369    4143.0539     10.14599    7.4867701   -16.332357    40.500002    40.500002    40.500002    26.983667   -3.3447414 
      35       0.0175    234.99797   -13254.269    4274.8902    4256.4317    4334.7076    4233.5313    9.9527424    8.0375155   -17.276641    40.500002    40.500002    40.500002    27.710227   -3.3439355 
      36        0.018    228.72565   -13254.268     4369.806    4349.0518    4433.9676    4326.3988    9.7758527     8.599732   -18.292125    40.500002    40.500002    40.500002     28.42261   -3.3431248 
      37       0.0185    222.42923   -13254.268     4466.812    4443.6601    4535.4159      4421.36     9.616032     9.177447   -19.384181    40.500002    40.500002    40.500002    29.119983    -3.342311 
      38        0.019    216.12181   -13254.268    4565.6041    4539.9567    4638.7385    4518.1169    9.4721018    9.7659431   -20.555738    40.500002    40.500002    40.500002    29.801517   -3.3414958 
      39       0.0195    209.81657   -13254.267    4665.8758     4637.636    4743.6217    4616.3698    9.3439389    10.360452    -21.80511    40.500002    40.500002    40.500002    30.466399   -3.3406809 
      40         0.02    251.76336   -13229.333    5168.2262    5143.8144    5247.3426    5113.5215    9.0849233     14.46032   -23.214933    40.500002    40.500002    40.500002    31.113823    -3.339868 
      41       0.0205    244.78146   -13229.332    5282.4051    5254.8742    5366.8367    5225.5044    8.9624817     15.11915   -24.762457    40.500002    40.500002    40.500002    31.815088   -3.3389656 
      42        0.021    237.80981   -13229.332    5397.9964    5367.2188    5487.8473    5338.9231    8.8471067    15.773993   -26.388079    40.500002    40.500002    40.500002    32.498173   -3.3380646 
      43       0.0215    230.86293   -13229.331     5514.659    5480.5097    5610.0265    5453.4409    8.7365783    16.419748   -28.089299    40.500002    40.500002    40.500002    33.162228   -3.3371667 
      44        0.022    223.95534   -13229.331    5632.0498    5594.4069    5733.0277    5568.7147    8.6266372    17.045993   -29.865897    40.500002    40.500002    40.500002    33.806429    -3.336274 
      45       0.0225    217.10141    -13229.33    5749.8192    5708.5656    5856.4977    5684.3943    8.5137312     17.64689   -31.715547    40.500002    40.500002    40.500002    34.429974   -3.3353881 
      46        0.023    210.31541    -13229.33    5867.6203    5822.6469    5980.0788    5800.1351    8.3957546    18.214047   -33.633434    40.500002    40.500002    40.500002    35.032085   -3.3345111 
      47       0.0235    203.61139   -13229.329    5985.1161    5936.3184    6103.4207    5915.6091    8.2731034    18.744763   -35.614356    40.500002    40.500002    40.500002    35.612017   -3.3336446 
      48        0.024    197.00315   -13229.329    6101.9633    6049.2434    6226.1679    6030.4787    8.1495971    19.239782    -37.65519    40.500002    40.500002    40.500002    36.169061   -3.3327906 
      49       0.0245    190.50422   -13229.329    6217.8241    6161.0904    6347.9728    6144.4092    8.0284237    19.698244   -39.749986    40.500002    40.500002    40.500002    36.702533   -3.3319506 
      50        0.025    242.06388    -13199.38    6813.8953    6765.4408    6943.9227    6732.3224    6.3695849    27.186037    -40.65788    40.500002    40.500002    40.500002    37.211784   -3.3311265 
      51       0.0255    234.88152    -13199.38    6943.9559    6890.7021    7080.8707    6860.2948    6.2286622    27.603217   -43.171004    40.500002    40.500002    40.500002    37.769445   -3.3301982 
      52        0.026    227.81582   -13199.379    7072.9813    7014.8371    7216.8273    6987.2794    6.0776382    27.959954   -45.745014    40.500002    40.500002    40.500002    38.302444    -3.329285 
      53       0.0265    220.88056   -13199.379     7200.636    7137.5207    7351.4503    7112.9369    5.9104063    28.255429   -48.373182    40.500002    40.500002    40.500002    38.810157   -3.3283887 
      54        0.027    214.08905   -13199.379    7326.5784    7258.4188    7484.3914    7236.9251    5.7262034    28.487235   -51.053358    40.500002    40.500002    40.500002    39.292004   -3.3275109 
      55       0.0275    207.45412   -13199.378    7450.4748    7377.2033    7615.3087    7358.9123    5.5229693    28.658603   -53.789216    40.500002    40.500002    40.500002    39.747452   -3.3266534 
      56        0.028    200.98808   -13199.378    7572.0043    7493.5517    7743.8745    7478.5868    5.2997065    28.764599   -56.577351    40.500002    40.500002    40.500002    40.176011   -3.3258177 
      57       0.0285    194.70263   -13199.378    7690.8626    7607.1622    7869.7753    7595.6503    5.0574124    28.799493   -59.409698    40.500002    40.500002    40.500002    40.577233   -3.3250054 
      58        0.029    188.60888   -13199.377    7806.7609    7717.7503    7992.7077    7709.8249    4.8022055     28.76176   -62.276954    40.500002    40.500002    40.500002    40.950724   -3.3242178 
      59       0.0295    182.71728   -13199.377    7919.4215    7825.0452    8112.3827    7820.8367    4.5377748    28.655164   -65.170857    40.500002    40.500002    40.500002    41.296139   -3.3234564 
      60         0.03    238.51879   -13167.596    8539.5695    8456.8881    8730.5685     8431.252    1.2503856    39.601391   -65.139247    40.500002    40.500002    40.500002    41.613187   -3.3227223 
      61       0.0305     232.1513   -13167.596    8662.6452    8573.6213    8861.7396    8552.5748   0.93301059    39.317317   -68.535122    40.500002    40.500002    40.500002    41.950684   -3.3218994 
      62        0.031     225.9872   -13167.596    8782.5456    8687.1148    8989.7396    8670.7822   0.61122324    38.953853   -71.945835    40.500002    40.500002    40.500002    42.260138   -3.3211027 
      63       0.0315    220.03543   -13167.595    8899.0085    8797.1112    9114.2988    8785.6154   0.28134078    38.514382   -75.356607    40.500002    40.500002    40.500002    42.541381   -3.3203335 
      64        0.032     214.3042   -13167.595    9011.7948    8903.3751    9235.1727    8896.8366 -0.054573818    38.002595   -78.754221    40.500002    40.500002    40.500002      42.7943   -3.3195928 
      65       0.0325    208.80094   -13167.595    9120.6868    9005.6929    9352.1448    9004.2229  -0.39347093    37.424513   -82.131661    40.500002    40.500002    40.500002    43.018848   -3.3188816 
      66        0.033    203.53227   -13167.595    9225.4808     9103.868    9465.0023     9107.572  -0.72996242    36.780441   -85.485827    40.500002    40.500002    40.500002    43.215032   -3.3182007 
      67       0.0335    198.50401   -13167.595    9325.9923    9197.7252    9573.5406    9206.7112   -1.0553916     36.07371   -88.806523    40.500002    40.500002    40.500002    43.382917   -3.3175509 
      68        0.034    193.72116   -13167.594    9422.0501    9287.1008    9677.5728    9301.4766   -1.3630964    35.307651    -92.07998    40.500002    40.500002    40.500002    43.522633   -3.3169328 
      69       0.0345    189.18789   -13167.594    9513.5071      9371.86     9776.933    9391.7283   -1.6509947    34.486477   -95.295244    40.500002    40.500002    40.500002    43.634365   -3.3163469 
      70        0.035    242.45377   -13137.848    10078.513    9946.3282    10339.921    9949.2893    -5.394776    46.783555   -94.466391    40.500002    40.500002    40.500002    43.718358   -3.3157938 
      71       0.0355    237.81466   -13137.848    10172.971    10033.105    10443.252    10042.556   -5.6905743     45.71739   -97.997307    40.500002    40.500002    40.500002    43.785702   -3.3151942 
      72        0.036     233.4096   -13137.848    10263.198    10115.655    10542.268    10131.669   -5.9710803    44.590639   -101.45453    40.500002    40.500002    40.500002    43.827202    -3.314625 
      73       0.0365    229.23977   -13137.848    10349.105    10193.905    10636.866    10216.545   -6.2309748    43.404088   -104.83543    40.500002    40.500002    40.500002    43.843334   -3.3140861 
      74        0.037     225.3056   -13137.848    10430.631    10267.804    10726.971    10297.117   -6.4653521    42.163802   -108.12759    40.500002    40.500002    40.500002    43.834624   -3.3135777 
      75       0.0375    221.60674   -13137.848    10507.724    10337.312    10812.516    10373.344    -6.669962    40.874488   -111.32678    40.500002    40.500002    40.500002    43.801651   -3.3130997 
      76        0.038    218.14214   -13137.848    10580.353    10402.413    10893.451    10445.196   -6.8416381    39.539395    -114.4293    40.500002    40.500002    40.500002    43.745059    -3.312652 
      77       0.0385       214.91   -13137.848    10648.494    10463.095     10969.74    10512.649    -6.974748    38.162244   -117.43458    40.500002    40.500002    40.500002    43.665541   -3.3122344 
      78        0.039    211.90784   -13137.848    10712.139    10519.356    11041.365    10575.697   -7.0731171    36.745421   -120.33757    40.500002    40.500002    40.500002     43.56384   -3.3118464 
      79       0.0395    209.13253   -13137.848    10771.299    10571.226    11108.328    10634.344   -7.1456934    35.287925    -123.1386    40.500002    40.500002    40.500002    43.440753   -3.3114878 
      80         0.04    253.29015   -13113.704    11214.227    11016.046    11551.288    11075.346   -9.6811219     45.19318   -122.35646    40.500002    40.500002    40.500002    43.297125    -3.311158 
      81       0.0405    250.68259   -13113.704    11270.477    11064.482    11615.771     11131.18   -9.7194229    43.529299   -125.23855    40.500002    40.500002    40.500002    43.118354   -3.3108211 
      82        0.041    248.26447   -13113.704    11323.026    11109.347    11676.372     11183.36   -9.7509784    41.858003   -128.02036    40.500002    40.500002    40.500002    42.922928   -3.3105087 
      83       0.0415    246.02989   -13113.704    11371.952    11150.711    11733.171    11231.975   -9.7782375    40.183531   -130.69752    40.500002    40.500002    40.500002    42.711948   -3.3102199 
      84        0.042    243.97254   -13113.704    11417.348    11188.664    11786.258    11277.123    -9.805383    38.508968    -133.2764    40.500002    40.500002    40.500002    42.486554   -3.3099541 
      85       0.0425    242.08571   -13113.705    11459.326    11223.327    11835.738    11318.913   -9.8369986    36.838644   -135.74691    40.500002    40.500002    40.500002    42.247924   -3.3097103 
      86        0.043    240.36236   -13113.705    11497.993    11254.818    11881.706    11357.455   -9.8777399    35.177594   -138.09534    40.500002    40.500002    40.500002    41.997269   -3.3094877 
      87       0.0435    238.79516   -13113.705    11533.463    11283.261    11924.262    11392.865   -9.9279573    33.541373   -140.30793    40.500002    40.500002    40.500002    41.735821   -3.3092852 
      88        0.044    237.37651   -13113.705    11565.871    11308.805     11963.53    11425.278    -9.999929    31.936787   -142.39528    40.500002    40.500002    40.500002    41.464835    -3.309102 
      89       0.0445    236.09862   -13113.706    11595.361    11331.604    11999.647    11454.833   -10.106101     30.35279   -144.36558    40.500002    40.500002    40.500002    41.185588   -3.3089369 
      90        0.045    267.47675   -13096.894    11892.389    11623.615    12299.208    11754.344   -11.263426    36.102275   -144.19154    40.500002    40.500002    40.500002    40.899388    -3.308789 
      91       0.0455    266.37239   -13096.894    11918.468    11642.914    12331.879    11780.611   -11.488818    34.461376   -146.03945    40.500002    40.500002    40.500002    40.589391   -3.3086463 
      92        0.046    265.36123   -13096.895    11942.688    11660.537    12362.488     11805.04   -11.797425    32.840556   -147.78623    40.500002    40.500002    40.500002     40.27759   -3.3085157 
      93       0.0465     264.4346   -13096.895    11965.226    11676.656    12391.221    11827.801   -12.198501    31.238485   -149.42091    40.500002    40.500002    40.500002    39.965444   -3.3083961 
      94        0.047    263.58392   -13096.895    11986.264    11691.453    12418.261    11849.079    -12.69274    29.656494   -150.93138    40.500002    40.500002    40.500002    39.654412   -3.3082862 
      95       0.0475    262.80069   -13096.896    12005.982    11705.098    12443.801    11869.047   -13.286139    28.093197   -152.32183    40.500002    40.500002    40.500002    39.345938    -3.308185 
      96        0.048    262.07661   -13096.896    12024.567    11717.767     12468.05    11887.884   -13.967382    26.537199   -153.59831    40.500002    40.500002    40.500002    39.041456   -3.3080915 
      97       0.0485    261.40353   -13096.896    12042.232     11729.65    12491.231    11905.815   -14.742322    24.981383   -154.75151    40.500002    40.500002    40.500002    38.742367   -3.3080046 
      98        0.049    260.77356   -13096.896     12059.17    11740.933    12513.555    11923.021   -15.625714    23.438109   -155.76604    40.500002    40.500002    40.500002    38.450051   -3.3079233 
      99       0.0495    260.17905   -13096.897    12075.536    11751.784    12535.187    11939.637   -16.634237     21.90256   -156.63604    40.500002    40.500002    40.500002    38.165836   -3.3078465 
     100         0.05    279.80631   -13086.458     12259.32    11928.002     12722.99     12126.97   -17.820668    24.218152   -156.58603    40.500002    40.500002    40.500002     37.89101   -3.3077734 
     101       0.0505    279.23086   -13086.459    12275.838     11939.12    12744.678    12143.716    -19.12088    22.638478   -157.17783    40.500002    40.500002    40.500002    37.617633   -3.3076991 
     102        0.051    278.65186   -13086.459    12292.688    11950.756    12766.528    12160.782   -20.548661    21.060502    -157.6121    40.500002    40.500002    40.500002    37.358336   -3.3076243 
     103       0.0515    278.06279   -13086.459    12310.015    11963.071    12788.657    12178.318   -22.107145    19.481275   -157.90663    40.500002    40.500002    40.500002    37.114299   -3.3075482 
     104        0.052    277.45762   -13086.459    12327.947    11976.189    12811.209    12196.442   -23.816311    17.898023   -158.05964    40.500002    40.500002    40.500002    36.886615   -3.3074701 
     105       0.0525    276.83074   -13086.459    12346.624    11990.253    12834.312    12215.307   -25.681496    16.304228   -158.08286    40.500002    40.500002    40.500002    36.676295   -3.3073891 
     106        0.053    276.17704    -13086.46    12366.162    12005.391     12858.06    12235.036   -27.687763    14.709896   -158.00488    40.500002    40.500002    40.500002    36.484235   -3.3073046 
     107       0.0535    275.49187    -13086.46    12386.633     12021.67    12882.525    12255.704   -29.831661    13.182659   -157.86454    40.500002    40.500002    40.500002    36.311209   -3.3072161 
     108        0.054    274.77108    -13086.46    12408.122    12039.177    12907.803    12277.385   -32.091007    11.726024   -157.69786    40.500002    40.500002    40.500002    36.157898    -3.307123 
     109       0.0545    274.01098    -13086.46    12430.709    12057.994    12933.996    12300.137   -34.458755    10.351777   -157.51689    40.500002    40.500002    40.500002    36.024887   -3.3070248 
     110        0.055    286.60423   -13079.536    12565.813    12186.395     13072.73    12438.312   -36.565951    11.212131   -157.16759    40.500002    40.500002    40.500002    35.912628   -3.3069211 
     111       0.0555    285.73008   -13079.536    12591.608    12208.775    13101.807    12464.243   -39.187743    10.007627   -156.88994    40.500002    40.500002    40.500002     35.81986   -3.3068082 
     112        0.056     284.7956   -13079.536    12619.079    12233.048     13132.34    12491.849   -41.941755    8.9270802   -156.56105    40.500002    40.500002    40.500002    35.750155   -3.3066874 
     113       0.0565    283.79919   -13079.536    12648.278    12259.288    13164.384    12521.162    -44.82859    7.9501226   -156.21881    40.500002    40.500002    40.500002    35.703592   -3.3065587 
     114        0.057    282.73987   -13079.536    12679.237    12287.533    13197.965    12552.213   -47.839257    7.0526413   -155.88522    40.500002    40.500002    40.500002    35.680114   -3.3064218 
     115       0.0575    281.61716   -13079.536    12711.953    12317.769    13233.086    12585.004    -50.93062    6.2414674   -155.58192    40.500002    40.500002    40.500002    35.679514   -3.3062767 
     116        0.058    280.43119   -13079.536    12746.386    12349.978    13269.706    12619.473   -54.075356    5.5063396   -155.34523    40.500002    40.500002    40.500002    35.701451   -3.3061234 
     117       0.0585    279.18258   -13079.536    12782.477    12384.141    13307.743    12655.548   -57.273702     4.796592     -155.191    40.500002    40.500002    40.500002    35.745457   -3.3059621 
     118        0.059    277.87247   -13079.536    12820.134    12420.188    13347.091    12693.123   -60.509951    4.1198188   -155.11148    40.500002    40.500002    40.500002     35.81095   -3.3057928 
     119       0.0595    276.50252   -13079.536    12859.302    12458.104    13387.673    12732.129   -63.745747    3.4848598   -155.08907    40.500002    40.500002    40.500002    35.897245   -3.3056157 
     120         0.06    287.53745   -13073.093    13003.504     12597.51    13534.079    12878.924    -66.30474    4.7051517   -155.38809    40.500002    40.500002    40.500002    36.003551   -3.3054312 
     121       0.0605    286.01583   -13073.093    13046.542    12640.032    13577.967    12921.627   -69.535466    4.1501015   -155.49214    40.500002    40.500002    40.500002    36.132385   -3.3052345 
     122        0.061    284.42966   -13073.093    13091.119    12684.459    13623.097    12965.802   -72.722622    3.6420364   -155.63045    40.500002    40.500002    40.500002    36.280946   -3.3050295 
     123       0.0615    282.78258   -13073.093    13137.141    12730.713    13669.375    13011.334   -75.842978    3.1655121   -155.77888    40.500002    40.500002    40.500002    36.448126   -3.3048166 
     124        0.062    281.07872   -13073.093    13184.483    12778.649    13716.703    13058.098   -78.886612    2.7414429   -155.92585    40.500002    40.500002    40.500002     36.63275   -3.3045964 
     125       0.0625    279.32263   -13073.093    13233.001    12828.101     13764.95    13105.951   -81.856439    2.4006572   -156.06335    40.500002    40.500002    40.500002    36.833568   -3.3043694 
     126        0.063    277.51927   -13073.093    13282.526    12878.893     13813.93    13154.753   -84.757675    2.1743735   -156.21609    40.500002    40.500002    40.500002    37.049279   -3.3041364 
     127       0.0635    275.67402   -13073.092    13332.875    12930.835    13863.454    13204.335    -87.59402    2.0639475   -156.39959    40.500002    40.500002    40.500002    37.278527   -3.3038979 
     128        0.064    273.79263   -13073.092    13383.879    12983.744    13913.376    13254.516   -90.367954    2.0463962   -156.61475    40.500002    40.500002    40.500002    37.519912   -3.3036547 
     129       0.0645    271.88117   -13073.092    13435.402    13037.447    13963.593    13305.165   -93.073041    2.1179695   -156.82159    40.500002    40.500002    40.500002    37.772027   -3.3034076 
     130        0.065    284.97302   -13065.324    13612.189    13211.545    14141.129    13483.893   -94.651389    4.5091363   -157.79418    40.500002    40.500002    40.500002     38.03345   -3.3031575 
     131       0.0655    282.96006   -13065.324    13665.887    13268.011    14193.091    13536.558   -97.316863    4.7807925   -157.97989    40.500002    40.500002    40.500002    38.310832   -3.3028973 
     132        0.066    280.92234   -13065.324    13719.957     13325.12     14245.27    13589.481   -99.931321    5.1534145   -158.14057    40.500002    40.500002    40.500002    38.596198   -3.3026339 
     133       0.0665     278.8672   -13065.323    13774.229    13382.699    14297.494    13642.494   -102.50889    5.6299123   -158.26657    40.500002    40.500002    40.500002    38.888059   -3.3023683 
     134        0.067    276.80226   -13065.323     13828.53    13440.563     14349.58    13695.448   -105.05381    6.2172205   -158.35808    40.500002    40.500002    40.500002    39.184921   -3.3021014 
     135       0.0675    274.73531   -13065.323     13882.69    13498.563    14401.332    13748.176   -107.56205     6.892006   -158.42028    40.500002    40.500002    40.500002    39.485311   -3.3018342 
     136        0.068    272.67429   -13065.323    13936.518    13556.505    14452.549      13800.5   -110.00707    7.6674081   -158.44628    40.500002    40.500002    40.500002    39.787794   -3.3015678 
     137       0.0685    270.62726   -13065.322    13989.796    13614.185    14502.997    13852.207   -112.37314    8.5499187   -158.44382    40.500002    40.500002    40.500002    40.090965   -3.3013032 
     138        0.069    268.60235   -13065.322    14042.306    13671.391    14552.436     13903.09   -114.63104    9.5499862   -158.43821    40.500002    40.500002    40.500002    40.393464   -3.3010414 
     139       0.0695    266.60774   -13065.322     14093.83      13727.9    14600.648    13952.943   -116.77969    10.678372   -158.43346    40.500002    40.500002    40.500002    40.693962   -3.3007836 
     140         0.07     282.3258   -13056.186    14291.062    13924.968    14797.772    14150.445   -117.40364    14.774038   -159.85394    40.500002    40.500002    40.500002    40.991179   -3.3005308 
     141       0.0705    280.34461   -13056.185     14341.82    13981.411    14844.603    14199.446   -119.37249    16.236093   -159.79523    40.500002    40.500002    40.500002     41.29431   -3.3002747 
     142        0.071    278.40209   -13056.185    14391.385    14036.917    14889.988    14247.249   -121.18675    17.852701   -159.70777    40.500002    40.500002    40.500002    41.593164   -3.3000236 
     143       0.0715    276.50653   -13056.185    14439.601     14091.31    14933.761    14293.733   -122.82166     19.61832   -159.59538    40.500002    40.500002    40.500002    41.886535   -3.2997785 
     144        0.072    274.66612   -13056.185    14486.302    14144.393    14975.742    14338.771   -124.27007    21.522458   -159.44566    40.500002    40.500002    40.500002    42.173267   -3.2995407 
     145       0.0725    272.88895   -13056.184    14531.294    14195.958    15015.742    14382.181   -125.52807    23.564849   -159.25234    40.500002    40.500002    40.500002    42.452263   -3.2993109 
     146        0.073     271.1829   -13056.184    14574.406    14245.818    15053.595    14423.805   -126.59216    25.732038    -159.0125    40.500002    40.500002    40.500002    42.722486   -3.2990904 
     147       0.0735    269.55569   -13056.184    14615.455    14293.753    15089.137    14463.474   -127.46431    28.016718   -158.72635    40.500002    40.500002    40.500002    42.982944   -3.2988801 
     148        0.074    268.01482   -13056.184    14654.252    14339.531    15122.225    14501.001   -128.14805    30.425645   -158.41947    40.500002    40.500002    40.500002      43.2327   -3.2986809 
     149       0.0745     266.5675   -13056.183     14690.62    14382.942    15152.703    14536.214   -128.64633    32.956628   -158.10493    40.500002    40.500002    40.500002    43.470882   -3.2984938 
     150        0.075    282.61035   -13047.194    14868.915    14564.583    15328.511    14713.652   -127.70306     38.53327   -159.58984    40.500002    40.500002    40.500002    43.696672   -3.2983197 
     151       0.0755     281.3216   -13047.194    14901.119    14604.088    15354.325    14744.943   -127.81597    41.339004   -159.31254    40.500002    40.500002    40.500002    43.917005   -3.2981531 
     152        0.076     280.1318   -13047.194    14930.737    14640.989    15377.424    14773.799   -127.71375    44.227909   -159.07168    40.500002    40.500002    40.500002    44.124693   -3.2979993 
     153       0.0765    279.04707   -13047.194    14957.618    14675.124    15397.661    14800.069   -127.38833    47.196307   -158.86304    40.500002    40.500002    40.500002    44.319079   -3.2978591 
     154        0.077    278.07318   -13047.194    14981.623     14706.34    15414.916    14823.614   -126.85929    50.238472   -158.70245    40.500002    40.500002    40.500002    44.499569   -3.2977332 
     155       0.0775    277.21548   -13047.193    15002.637    14734.505    15429.065    14844.341   -126.13896    53.352664   -158.59592    40.500002    40.500002    40.500002    44.665615   -3.2976223 
     156        0.078    276.47894   -13047.193    15020.559    14759.512    15439.993    14862.173   -125.21081    56.531313   -158.53452    40.500002    40.500002    40.500002    44.816728   -3.2975271 
     157       0.0785    275.86807   -13047.193    15035.276    14781.232    15447.598    14876.999   -124.07373    59.768967   -158.50178    40.500002    40.500002    40.500002    44.952477   -3.2974481 
     158        0.079    275.38696   -13047.193     15046.67    14799.514    15451.783    14888.713     -122.716    63.059442   -158.50884    40.500002    40.500002    40.500002    45.072486   -3.2973859 
     159       0.0795    275.03921   -13047.193    15054.671    14814.254    15452.506    14897.254   -121.13252    66.398999   -158.57969    40.500002    40.500002    40.500002    45.176435   -3.2973409 
     160         0.08    287.41397   -13040.687     15163.82    14928.893    15556.455    15006.113   -118.72635    71.816063   -160.11673    40.500002    40.500002    40.500002    45.264052   -3.2973136 
     161       0.0805     287.3337   -13040.687    15165.042    14936.629    15550.183    15008.313   -116.66043    75.326066    -160.3211    40.500002    40.500002    40.500002    45.337316   -3.2973032 
     162        0.081    287.38491   -13040.687    15162.964    14940.847    15540.601    15007.443   -114.38815    78.874218   -160.56832    40.500002    40.500002    40.500002    45.394679   -3.2973098 
     163       0.0815    287.56935   -13040.687    15157.559    14941.499    15527.703    15003.474   -111.92116    82.466058   -160.85793    40.500002    40.500002    40.500002    45.436042   -3.2973337 
     164        0.082    287.88827   -13040.687    15148.789    14938.527    15511.467    14996.372   -109.26239    86.100201   -161.19133    40.500002    40.500002    40.500002    45.461366   -3.2973749 
     165       0.0825    288.34245   -13040.687    15136.637    14931.896    15491.909    14986.105   -106.41289    89.759073   -161.59069    40.500002    40.500002    40.500002    45.470649   -3.2974335 
     166        0.083    288.93219   -13040.687    15121.094    14921.582    15469.043    14972.659   -103.38218    93.438971   -162.06934    40.500002    40.500002    40.500002    45.463945   -3.2975098 
     167       0.0835    289.65732   -13040.687    15102.181    14907.597    15442.883    14956.063   -100.16793     97.13877   -162.62595    40.500002    40.500002    40.500002    45.441359   -3.2976035 
     168        0.084    290.51722   -13040.687    15079.924    14889.968    15413.454    14936.351   -96.765293    100.84293    -163.2562    40.500002    40.500002    40.500002    45.403037   -3.2977146 
     169       0.0845    291.51077   -13040.687     15054.36    14868.725    15380.805    14913.551   -93.171138    104.53705   -163.97017    40.500002    40.500002    40.500002     45.34918    -3.297843 
     170        0.085     296.3182   -13038.784    15056.121    14874.636    15375.911    14917.817   -89.354536     108.7026   -165.15049    40.500002    40.500002    40.500002    45.280027   -3.2979885 
     171       0.0855    297.57995   -13038.784    15023.881    14846.076    15336.753    14888.814   -85.416723    112.36125   -166.00535    40.500002    40.500002    40.500002    45.195495   -3.2981516 
     172        0.086    298.96645   -13038.784    14988.508    14814.032    15294.598    14856.896    -81.34191    115.96164   -166.92218    40.500002    40.500002    40.500002    45.096517   -3.2983308 
     173       0.0865    300.47478   -13038.784    14950.071    14778.583    15249.517    14822.111   -77.137111    119.51058   -167.91633    40.500002    40.500002    40.500002    44.983475   -3.2985257 
     174        0.087    302.10164   -13038.784    14908.674    14739.857     15201.61    14784.554   -72.829102    122.99919   -169.01304    40.500002    40.500002    40.500002    44.856802    -3.298736 
     175       0.0875    303.84331   -13038.784    14864.437    14697.976    15151.001    14744.334   -68.448354    126.42761   -170.21209    40.500002    40.500002    40.500002     44.71697   -3.2989611 
     176        0.088    305.69571   -13038.784    14817.448     14653.03     15097.78    14701.534     -64.0085    129.78847   -171.51362    40.500002    40.500002    40.500002    44.564476   -3.2992005 
     177       0.0885    307.65442   -13038.785    14767.796    14605.117    15042.016    14656.255   -59.564973    133.06612   -172.90625    40.500002    40.500002    40.500002    44.399855   -3.2994536 
     178        0.089    309.71467   -13038.785    14715.585    14554.364    14983.802    14608.589   -55.146195    136.26313    -174.3893    40.500002    40.500002    40.500002     44.22367   -3.2997199 
     179       0.0895    311.87141   -13038.785    14660.928    14500.897    14923.254    14558.635   -50.744195    139.38872   -175.97141    40.500002    40.500002    40.500002    44.036528   -3.2999987 
     180         0.09    307.05964   -13042.434    14545.285    14385.239    14801.866     14448.75   -46.293496    141.77022   -176.93478    40.500002    40.500002    40.500002    43.839068   -3.3002892 
     181       0.0905    309.36992   -13042.434    14486.736      14327.4    14737.692    14395.115   -42.025593     144.7314   -178.67689    40.500002    40.500002    40.500002    43.633988   -3.3005878 
     182        0.091    311.76549   -13042.435    14426.002    14267.159    14671.433    14339.413   -37.864092    147.64074   -180.50862    40.500002    40.500002    40.500002    43.419413   -3.3008974 
     183       0.0915    314.24036   -13042.435    14363.234    14204.651    14603.236    14281.817   -33.811677    150.46974   -182.42649    40.500002    40.500002    40.500002    43.196036   -3.3012173 
     184        0.092    316.78828   -13042.435    14298.576    14139.989    14533.256    14222.481   -29.840532    153.20215   -184.42844    40.500002    40.500002    40.500002    42.964571   -3.3015466 
     185       0.0925    319.40286   -13042.435    14232.218    14073.358    14461.695    14161.602   -25.951725      155.784   -186.51562    40.500002    40.500002    40.500002    42.725783   -3.3018845 
     186        0.093    322.07754   -13042.435     14164.34    14004.919    14388.752    14099.349   -22.144628    158.17144   -188.65407    40.500002    40.500002    40.500002    42.480442   -3.3022302 
     187       0.0935    324.80563   -13042.436    14095.092     13934.84    14314.575     14035.86   -18.428707    160.32959    -190.8299    40.500002    40.500002    40.500002    42.229318   -3.3025828 
     188        0.094    327.58036   -13042.436    14024.648    13863.322    14239.334    13971.288    -14.82545    162.24729   -193.04436    40.500002    40.500002    40.500002    41.973199   -3.3029415 
     189       0.0945    330.39484   -13042.436    13953.177    13790.544    14163.198     13905.79      -11.353    163.93295   -195.28162    40.500002    40.500002    40.500002    41.712906   -3.3033052 
     190        0.095    316.62109   -13051.028    13742.702    13575.528    13949.736    13702.842   -7.6700421    164.29268   -195.95257    40.500002    40.500002    40.500002    41.449283   -3.3036732 
     191       0.0955    319.42882   -13051.028    13671.326     13502.51    13874.054    13637.412   -4.5751858    165.44808   -198.14814    40.500002    40.500002    40.500002    41.189201   -3.3040361 
     192        0.096    322.26915   -13051.028    13599.065    13428.453    13797.618    13571.124   -1.5975055    166.32304   -200.33337    40.500002    40.500002    40.500002    40.926135   -3.3044032 
     193       0.0965    325.13523   -13051.029    13526.093    13353.542    13720.594    13504.142    1.2808783    166.91731   -202.50659    40.500002    40.500002    40.500002    40.660919   -3.3047737 
     194        0.097    328.02024   -13051.029    13452.562    13277.947     13643.14    13436.598    4.0457251    167.25879   -204.64164    40.500002    40.500002    40.500002     40.39438   -3.3051465 
     195       0.0975    330.91739   -13051.029    13378.658    13201.874     13565.46    13368.642    6.6605114    167.35143   -206.73023    40.500002    40.500002    40.500002    40.127342    -3.305521 
     196        0.098    333.81996   -13051.029    13304.559     13125.52    13487.736    13300.422    9.1348628    167.18756   -208.75911    40.500002    40.500002    40.500002    39.860625   -3.3058961 
     197       0.0985    336.72128   -13051.029    13230.429    13049.058    13410.121    13232.109    11.496128    166.77987   -210.69955    40.500002    40.500002    40.500002    39.595043   -3.3062711 
     198        0.099    339.61477    -13051.03    13156.428    12972.664    13332.763    13163.856    13.750576    166.15843   -212.55959    40.500002    40.500002    40.500002    39.331398   -3.3066451 
     199       0.0995    342.49393    -13051.03    13082.701      12896.5    13255.826    13095.778    15.877923    165.31195    -214.3282    40.500002    40.500002    40.500002     39.07049   -3.3070172 
     200          0.1     322.6762   -13062.752    12820.923    12627.982    12994.511    12840.276    18.250921    162.96758   -213.83925    40.500002    40.500002    40.500002    38.813126   -3.3073866 
     201       0.1005    325.42217   -13062.752    12750.404    12555.086    12921.195    12774.932    19.999487    161.75573    -215.3078    40.500002    40.500002    40.500002    38.567671   -3.3077415 
     202        0.101    328.15415   -13062.752    12680.196    12482.509    12848.342    12709.736    21.609388    160.36119    -216.6314    40.500002    40.500002    40.500002    38.325395   -3.3080946 
     203       0.1015    330.86633   -13062.752     12610.46      12410.4    12776.139    12644.842    23.062792    158.76891   -217.82292    40.500002    40.500002    40.500002    38.087025   -3.3084452 
     204        0.102    333.55306   -13062.752    12541.367    12338.937    12704.734    12580.429     24.34934      156.956   -218.91288    40.500002    40.500002    40.500002    37.853277   -3.3087924 
     205       0.1025    336.20881   -13062.752    12473.065    12268.306     12634.25     12516.64    25.493429    154.91531   -219.93035    40.500002    40.500002    40.500002    37.624862   -3.3091357 
     206        0.103    338.82821   -13062.753    12405.676    12198.689    12564.784    12453.554    26.505278    152.65985   -220.88637    40.500002    40.500002    40.500002    37.402457   -3.3094742 
     207       0.1035    341.40605   -13062.753    12339.335    12130.258    12496.453    12391.294    27.402095    150.19564   -221.78328    40.500002    40.500002    40.500002    37.186733   -3.3098074 
     208        0.104    343.93732   -13062.753    12274.214    12063.165    12429.443    12330.035    28.179735    147.53528   -222.64231    40.500002    40.500002    40.500002    36.978344   -3.3101345 
     209       0.1045    346.41721   -13062.753    12210.454    11997.549    12363.887    12269.926    28.822322    144.70264   -223.46791    40.500002    40.500002    40.500002    36.777922    -3.310455 
     210        0.105    324.42057   -13075.376    11945.202    11726.487    12101.424    12007.695    29.408827    139.98749   -221.94641    40.500002    40.500002    40.500002    36.586049   -3.3107683 
     211       0.1055    326.70909   -13075.377    11886.464    11666.152    12041.132    11952.109    29.731007    136.99339   -222.67088    40.500002    40.500002    40.500002    36.408868   -3.3110641 
     212        0.106    328.95371   -13075.377    11828.909    11607.103    11982.088    11897.535    29.897636    133.87732   -223.32446    40.500002    40.500002    40.500002      36.2391   -3.3113542 
     213       0.1065     331.1506   -13075.377    11772.612    11549.396     11924.35    11844.089    29.902794    130.65696   -223.88748    40.500002    40.500002    40.500002    36.077207   -3.3116381 
     214        0.107    333.29614   -13075.377    11717.682    11493.132    11868.017    11791.896    29.754785    127.36418   -224.36752    40.500002    40.500002    40.500002    35.923626   -3.3119154 
     215       0.1075     335.3869   -13075.377    11664.218    11438.429    11813.178    11741.048      29.4681    124.01085    -224.7611    40.500002    40.500002    40.500002    35.778762   -3.3121856 
     216        0.108    337.41965   -13075.377    11612.279    11385.342    11759.895    11691.601    29.058114    120.58256   -225.06337    40.500002    40.500002    40.500002    35.642987   -3.3124483 
     217       0.1085    339.39141   -13075.377    11561.884    11333.904    11708.184    11643.563    28.525299    117.04433   -225.29836    40.500002    40.500002    40.500002    35.516639   -3.3127031 
     218        0.109    341.29937   -13075.377    11513.077    11284.155    11658.097    11596.981     27.88586    113.38363   -225.52117    40.500002    40.500002    40.500002    35.400037   -3.3129497 
     219       0.1095    343.14097   -13075.377     11465.96    11236.184    11609.733    11551.963    27.145666    109.63312   -225.74937    40.500002    40.500002    40.500002    35.293479   -3.3131877 
     220         0.11    322.45694   -13086.986    11233.984    11000.606    11380.603    11320.744    25.930234    103.47423   -223.97088    40.500002    40.500002    40.500002    35.197213   -3.3134168 
     221       0.1105    324.11078   -13086.986    11191.741    10957.742    11337.158    11280.323    24.926611    99.723532   -224.23588    40.500002    40.500002    40.500002    35.113441   -3.3136306 
     222        0.111    325.71052   -13086.986    11150.919    10916.388    11295.135    11241.233    23.782815    95.906955   -224.50657    40.500002    40.500002    40.500002    35.038296   -3.3138373 
     223       0.1115    327.25449   -13086.986    11111.559    10876.568    11254.597    11203.512    22.504599    92.054562   -224.78468    40.500002    40.500002    40.500002    34.971942   -3.3140368 
     224        0.112    328.74123   -13086.986    11073.693    10838.324    11215.584    11167.171    21.102658    88.198417   -225.05571    40.500002    40.500002    40.500002    34.914495    -3.314229 
     225       0.1125    330.16944   -13086.986     11037.35    10801.689    11178.138    11132.222    19.580708    84.362946   -225.30465    40.500002    40.500002    40.500002    34.866027   -3.3144136 
     226        0.113    331.53806   -13086.986    11002.508    10766.622    11142.241    11098.662    17.935175    80.575786   -225.52687    40.500002    40.500002    40.500002    34.826566   -3.3145904 
     227       0.1135    332.84618   -13086.986    10969.183    10733.148    11107.885    11066.517    16.175236    76.844719   -225.72324    40.500002    40.500002    40.500002    34.796124   -3.3147595 
     228        0.114    334.09313   -13086.986    10937.414    10701.303    11075.101    11035.839     14.31259    73.146443   -225.89297    40.500002    40.500002    40.500002    34.774681   -3.3149206 
     229       0.1145    335.27839   -13086.986    10907.178     10671.06     11043.86    11006.613    12.351429    69.477683   -226.00779    40.500002    40.500002    40.500002    34.762182   -3.3150738 
     230        0.115    318.20084   -13096.394    10727.185    10489.665    10865.699    10826.191    9.7097013    63.179742   -224.64392    40.500002    40.500002    40.500002    34.758536    -3.315219 
     231       0.1155    319.23941   -13096.394     10700.56    10463.208    10838.086    10800.384     7.602501    59.655042   -224.62025    40.500002    40.500002    40.500002    34.762789   -3.3153532 
     232        0.116     320.2306   -13096.394    10675.111    10438.029    10811.642     10775.66    5.4231001    56.168503   -224.52834    40.500002    40.500002    40.500002    34.774019   -3.3154813 
     233       0.1165    321.17462   -13096.394    10650.813    10414.091    10786.357    10751.992    3.1821814    52.739467   -224.36722    40.500002    40.500002    40.500002    34.792074   -3.3156032 
     234        0.117    322.07176   -13096.394    10627.651    10391.375    10762.235    10729.344   0.89059483    49.370535    -224.1166    40.500002    40.500002    40.500002    34.816806   -3.3157192 
     235       0.1175    322.92247   -13096.394    10605.636    10369.884    10739.286    10707.739   -1.4461596    46.062145   -223.76114    40.500002    40.500002    40.500002    34.848054   -3.3158291 
     236        0.118    323.72731   -13096.394    10584.736    10349.582    10717.475    10687.151   -3.8228707    42.820563   -223.28272    40.500002    40.500002    40.500002    34.885622   -3.3159331 
     237       0.1185    324.48697   -13096.394    10564.912    10330.418    10696.791    10667.526   -6.2400348     39.63228   -222.68817    40.500002    40.500002    40.500002    34.929286   -3.3160313 
     238        0.119    325.20229   -13096.394    10546.155    10312.377    10677.224    10648.866   -8.7029155    36.487953   -222.00459    40.500002    40.500002    40.500002    34.978812   -3.3161237 
     239       0.1195    325.87422   -13096.394    10528.436    10295.421    10658.746     10631.14   -11.206047    33.405209   -221.24171    40.500002    40.500002    40.500002    35.033937   -3.3162105 
     240         0.12    313.25192   -13103.244    10401.576    10168.882    10532.762    10503.085   -14.296949      27.9983   -219.67329    40.500002    40.500002    40.500002     35.09439   -3.3162919 
     241       0.1205    313.83306   -13103.244    10386.042    10154.151    10516.667    10487.307   -16.803132    25.160188   -218.78455    40.500002    40.500002    40.500002    35.158059    -3.316367 
     242        0.121    314.38464   -13103.244    10371.217    10140.174    10501.366    10472.109   -19.304411     22.42057   -217.80892    40.500002    40.500002    40.500002    35.225412   -3.3164383 
     243       0.1215    314.90801   -13103.244    10357.063    10126.925    10486.807    10457.457   -21.778959    19.779062   -216.75645    40.500002    40.500002    40.500002     35.29616   -3.3165059 
     244        0.122     315.4046   -13103.244     10343.55    10114.378    10472.926    10443.347   -24.234749    17.239404    -215.6257    40.500002    40.500002    40.500002    35.369996     -3.31657 
     245       0.1225    315.87591   -13103.244    10330.649    10102.512    10459.664    10429.772   -26.654626    14.793968   -214.40791    40.500002    40.500002    40.500002    35.446615   -3.3166309 
     246        0.123     316.3235   -13103.244    10318.319    10091.286    10446.955    10416.715   -29.032863    12.447061   -213.07021    40.500002    40.500002    40.500002    35.525693   -3.3166888 
     247       0.1235    316.74899   -13103.244    10306.505    10080.663    10434.746    10404.107   -31.387384    10.228723   -211.60395    40.500002    40.500002    40.500002    35.606904   -3.3167437 
     248        0.124    317.15403   -13103.244    10295.163    10070.589    10422.997    10391.904   -33.705167    8.1471198   -210.00518    40.500002    40.500002    40.500002    35.689927   -3.3167961 
     249       0.1245    317.54033   -13103.244    10284.261    10061.012    10411.677    10380.094   -35.975719    6.1913482   -208.28082    40.500002    40.500002    40.500002    35.774436    -3.316846 
     250        0.125    308.95482   -13107.872    10199.345    9977.4999    10327.007    10293.529   -38.569411    2.5452909   -206.17013    40.500002    40.500002    40.500002    35.860102   -3.3168937 
     251       0.1255    309.30712   -13107.872    10189.305    9968.8135     10316.55    10282.551   -40.742874   0.85826933   -204.15893    40.500002    40.500002    40.500002    35.945021   -3.3169392 
     252        0.126    309.65267   -13107.872    10179.467    9960.3637    10306.273    10271.764   -42.902185  -0.71159407   -201.98849    40.500002    40.500002    40.500002    36.029748   -3.3169838 
     253       0.1265    309.99322   -13107.872     10169.82    9952.1462    10296.143    10261.172   -45.022947    -2.157689   -199.63911    40.500002    40.500002    40.500002    36.113975   -3.3170278 
     254        0.127    310.33051   -13107.872    10160.322    9944.1256    10286.105    10250.736   -47.075839    -3.485763   -197.08559    40.500002    40.500002    40.500002    36.197392   -3.3170714 
     255       0.1275    310.66626   -13107.872    10150.932    9936.2618    10276.114    10240.421   -49.064341   -4.7088921   -194.31464    40.500002    40.500002    40.500002    36.279701   -3.3171148 
     256        0.128    311.00216   -13107.872     10141.62    9928.5282     10266.14     10230.19   -50.994741   -5.8432509   -191.30733    40.500002    40.500002    40.500002    36.360605   -3.3171582 
     257       0.1285    311.33988   -13107.872    10132.365    9920.9111    10256.164    10220.021   -52.860512   -6.9037568   -188.07244    40.500002    40.500002    40.500002    36.439813   -3.3172018 
     258        0.129    311.68107   -13107.872     10123.13    9913.3627    10246.153    10209.875   -54.656278    -7.898919   -184.60936    40.500002    40.500002    40.500002    36.517039   -3.3172459 
     259       0.1295    312.02733   -13107.872    10113.896    9905.8551    10236.114    10199.719   -56.364023   -8.8481242   -180.90872    40.500002    40.500002    40.500002     36.59202   -3.3172906 
     260         0.13    306.19011   -13111.072    10053.202    9847.1811      10174.8    10137.625   -58.153408   -10.985178    -177.0135    40.500002    40.500002    40.500002     36.66449   -3.3173362 
     261       0.1305    306.54977   -13111.072    10043.985    9839.7613    10164.723     10127.47   -59.625758   -11.840467   -172.96633    40.500002    40.500002    40.500002    36.733275   -3.3173827 
     262        0.131     306.9234   -13111.072    10034.607    9832.2333    10154.467    10117.122   -60.980692   -12.656713   -168.75512    40.500002    40.500002    40.500002    36.798632    -3.317431 
     263       0.1315    307.31233   -13111.072    10025.064    9824.6026    10144.016    10106.572   -62.202169   -13.432263   -164.36498    40.500002    40.500002    40.500002    36.860348   -3.3174812 
     264        0.132    307.71781   -13111.072    10015.337    9816.8563    10133.369    10095.786   -63.287986   -14.187229   -159.79471    40.500002    40.500002    40.500002    36.918227   -3.3175336 
     265       0.1325    308.14098   -13111.072    10005.388    9808.9565    10122.492    10084.716   -64.226365   -14.926924   -155.04346    40.500002    40.500002    40.500002    36.972065   -3.3175883 
     266        0.133    308.58291   -13111.072     9995.167    9800.8732     10111.32    10073.308   -65.007133   -15.669111   -150.12097    40.500002    40.500002    40.500002    37.021676   -3.3176454 
     267       0.1335    309.04457   -13111.071    9984.6471    9792.5856    10099.831    10061.525   -65.640593   -16.436663   -145.02246    40.500002    40.500002    40.500002      37.0669    -3.317705 
     268        0.134    309.52682   -13111.071    9973.8237    9784.1018    10088.019     10049.35   -66.150261   -17.243016   -139.76099    40.500002    40.500002    40.500002    37.107597   -3.3177673 
     269       0.1345     310.0304   -13111.071    9962.6528     9775.395    10075.829    10036.735   -66.546195   -18.090815   -134.34947    40.500002    40.500002    40.500002    37.143636   -3.3178324 
     270        0.135    305.27797     -13113.8    9907.2357    9722.9029    10019.435    9979.3693    -66.95428   -19.884643   -128.91361    40.500002    40.500002    40.500002    37.174916   -3.3179003 
     271       0.1355    305.82326     -13113.8     9895.387    9713.7027    10006.552    9965.9064   -67.190883   -20.818077   -123.23295    40.500002    40.500002    40.500002    37.200942   -3.3179708 
     272        0.136    306.39511     -13113.8    9883.0916    9704.1593    9993.2034    9951.9122   -67.363866   -21.815324   -117.38231    40.500002    40.500002    40.500002    37.221714   -3.3180447 
     273       0.1365    306.99378     -13113.8    9870.3381    9694.2441    9979.3977    9937.3724   -67.490931   -22.887251   -111.37752    40.500002    40.500002    40.500002    37.237188   -3.3181221 
     274        0.137    307.61941     -13113.8    9857.1363    9683.9564    9965.1518    9922.3008   -67.571608   -24.038562   -105.24997    40.500002    40.500002    40.500002    37.247325   -3.3182029 
     275       0.1375    308.27203     -13113.8    9843.4708    9673.2742    9950.4533    9906.6849   -67.605004   -25.244986   -99.024486    40.500002    40.500002    40.500002    37.252112   -3.3182872 
     276        0.138    308.95151     -13113.8    9829.3392    9662.1885    9935.2986    9890.5304   -67.587446   -26.510252   -92.720106    40.500002    40.500002    40.500002     37.25157   -3.3183751 
     277       0.1385    309.65761     -13113.8    9814.7516    9650.6898    9919.7129    9873.8521   -67.526528   -27.827907    -86.34871    40.500002    40.500002    40.500002     37.24574   -3.3184663 
     278        0.139    310.38998     -13113.8    9799.7208    9638.7706    9903.7143    9856.6776   -67.419524   -29.184488   -79.930251    40.500002    40.500002    40.500002    37.234683   -3.3185609 
     279       0.1395    311.14816     -13113.8     9784.251    9626.4161    9887.3177    9839.0192   -67.251012   -30.581901   -73.476923    40.500002    40.500002    40.500002    37.218469   -3.3186589 
     280         0.14    305.96578   -13116.884    9718.7756    9564.5291    9820.9802    9770.8175    -67.11739   -32.810134   -67.204008    40.500002    40.500002    40.500002    37.197196   -3.3187602 
     281       0.1405    306.76812   -13116.884    9702.5796    9551.3972     9803.991    9752.3507    -66.84821   -34.300416   -60.794993    40.500002    40.500002    40.500002    37.170994   -3.3188639 
     282        0.141    307.59829   -13116.884    9685.9083    9537.7862    9786.6031    9733.3357   -66.560069   -35.827798   -54.393482    40.500002    40.500002    40.500002    37.139557   -3.3189712 
     283       0.1415    308.45538   -13116.884    9668.7634    9523.7006    9768.8153    9713.7744   -66.259007   -37.392461   -47.996338    40.500002    40.500002    40.500002    37.103006   -3.3190819 
     284        0.142    309.33835   -13116.884    9651.1538    9509.1429    9750.6414    9693.6769   -65.955072   -38.985539   -41.617513    40.500002    40.500002    40.500002    37.061483    -3.319196 
     285       0.1425    310.24605   -13116.884    9633.1053    9494.1666    9732.1139    9673.0355    -65.66437   -40.612925    -35.25449    40.500002    40.500002    40.500002    37.015151   -3.3193133 
     286        0.143    311.17722   -13116.884    9614.6623    9478.8431    9713.2665    9651.8775   -65.406653   -42.277047   -28.923592    40.500002    40.500002    40.500002    36.964181   -3.3194337 
     287       0.1435    312.13047   -13116.884    9595.8417    9463.1927    9694.1184    9630.2139   -65.161781   -43.955912    -22.63005    40.500002    40.500002    40.500002    36.908762   -3.3195569 
     288        0.144    313.10433   -13116.884    9576.6775    9447.2352    9674.7141    9608.0834   -64.916488   -45.628853   -16.378079    40.500002    40.500002    40.500002      36.8491   -3.3196828 
     289       0.1445    314.09721   -13116.884    9557.1884     9430.982    9655.0656    9585.5177   -64.686836   -47.316796   -10.178917    40.500002    40.500002    40.500002    36.785418   -3.3198111 
     290        0.145    307.55371   -13120.789    9474.6219     9352.323    9572.4386     9499.104    -64.72871   -49.613937   -4.2252113    40.500002    40.500002    40.500002     36.71795   -3.3199416 
     291       0.1455    308.56984   -13120.789    9454.7322     9335.668    9552.4718    9476.0569   -64.581008   -51.326758    1.8075884    40.500002    40.500002    40.500002    36.647506    -3.320073 
     292        0.146    309.60494   -13120.789    9434.4458    9318.6232     9532.134    9452.5802   -64.469327   -53.035856    7.7957567    40.500002    40.500002    40.500002    36.573244   -3.3202067 
     293       0.1465     310.6571   -13120.789    9413.7922    9301.2336     9511.454     9428.689   -64.376688   -54.727743    13.717208    40.500002    40.500002    40.500002    36.495435   -3.3203427 
     294        0.147    311.72435   -13120.789    9392.8127    9283.5487    9490.4491    9404.4404   -64.295484   -56.410389    19.561355    40.500002    40.500002    40.500002    36.414354   -3.3204807 
     295       0.1475    312.80466   -13120.789    9371.5535    9265.5966    9469.1713    9379.8926   -64.241966   -58.076979     25.31747    40.500002    40.500002    40.500002    36.330277   -3.3206203 
     296        0.148    313.89593   -13120.789    9350.0644    9247.4073    9447.6778     9355.108   -64.225025   -59.732973    30.983783    40.500002    40.500002    40.500002     36.24349   -3.3207613 
     297       0.1485    314.99601   -13120.789    9328.3792     9229.004    9425.9905    9330.1431   -64.234875   -61.386815    36.555087    40.500002    40.500002    40.500002    36.154292   -3.3209035 
     298        0.149    316.10268   -13120.789    9306.5273     9210.393    9404.1356    9305.0533   -64.262478   -63.009261    42.020222    40.500002    40.500002    40.500002     36.06298   -3.3210465 
     299       0.1495     317.2137   -13120.789    9284.5768    9191.6128     9382.168    9279.9496   -64.304937   -64.583664    47.380344    40.500002    40.500002    40.500002    35.969868   -3.3211901 
     300         0.15    309.16339   -13125.526    9186.4238    9097.2684    9284.1859    9177.8172   -64.956896   -66.342381     52.55585    40.500002    40.500002    40.500002    35.875279    -3.321334 
     301       0.1505    310.26329   -13125.526    9164.6683    9078.5219    9262.3468    9153.1363   -65.029718    -67.77654    57.628898    40.500002    40.500002    40.500002    35.780583   -3.3214761 
     302        0.151    311.36705   -13125.526    9142.8046    9059.6204    9240.3626    9128.4309   -65.092272   -69.135769     62.60577    40.500002    40.500002    40.500002    35.684366   -3.3216188 
     303       0.1515    312.47235   -13125.526    9120.8893    9040.6284    9218.2667    9103.7729   -65.136873   -70.393581    67.467725    40.500002    40.500002    40.500002    35.586937   -3.3217617 
     304        0.152    313.57683   -13125.526    9098.9801    9021.6215    9196.0773    9079.2417   -65.159832   -71.543145    72.225443    40.500002    40.500002    40.500002    35.488612   -3.3219044 
     305       0.1525    314.67811   -13125.526    9077.1089    9002.6281    9173.8212    9054.8774   -65.158487   -72.597465    76.864383    40.500002    40.500002    40.500002      35.3897   -3.3220467 
     306        0.153    315.77379   -13125.526    9055.3033    8983.6971    9151.5275    9030.6852   -65.124316   -73.561356    81.383712    40.500002    40.500002    40.500002     35.29051   -3.3221883 
     307       0.1535    316.86151   -13125.526    9033.6042    8964.9059    9129.2245    9006.6823   -65.040926    -74.42565    85.796555    40.500002    40.500002    40.500002    35.191357   -3.3223289 
     308        0.154    317.93891   -13125.527    9012.0801     8946.332    9107.0019    8982.9063   -64.885047   -75.164793    90.089977    40.500002    40.500002    40.500002    35.092562   -3.3224682 
     309       0.1545    319.00363   -13125.527    8990.7677    8928.0145    9084.9239    8959.3647   -64.627794   -75.760336    94.255382    40.500002    40.500002    40.500002    34.994437   -3.3226058 
     310        0.155    310.02668    -13130.71    8886.3829    8827.2329    8980.1962    8851.7197   -65.367362   -75.972686    98.428165    40.500002    40.500002    40.500002    34.897314   -3.3227415 
     311       0.1555    311.04626    -13130.71    8865.9068    8809.8041    8958.8605    8829.0557   -64.865743    -76.32003    102.20224    40.500002    40.500002    40.500002     34.80268   -3.3228732 
     312        0.156    312.05347    -13130.71    8845.6461    8792.6354    8937.6842    8806.6187   -64.246678   -76.560433    105.81846    40.500002    40.500002    40.500002    34.708953   -3.3230034 
     313       0.1565    313.04612    -13130.71    8825.6415    8775.7553    8916.7266    8784.4426    -63.53642   -76.694045    109.26157    40.500002    40.500002    40.500002    34.616436   -3.3231317 
     314        0.157    314.02206    -13130.71     8805.917    8759.1771    8896.0189    8762.5551   -62.744303   -76.728795    112.49957    40.500002    40.500002    40.500002    34.525424   -3.3232578 
     315       0.1575    314.97918    -13130.71    8786.5264    8742.9467    8875.6091    8741.0235   -61.849589   -76.676815    115.52029    40.500002    40.500002    40.500002    34.436209   -3.3233815 
     316        0.158    315.91541    -13130.71    8767.5143     8727.084    8855.5561    8719.9027   -60.872178   -76.559874    118.33564    40.500002    40.500002    40.500002     34.34908   -3.3235026 
     317       0.1585    316.82875    -13130.71    8748.9051    8711.6134    8835.8771    8699.2248    -59.85776   -76.376118    120.94919    40.500002    40.500002    40.500002     34.26431   -3.3236206 
     318        0.159    317.71726    -13130.71    8730.7518    8696.5959    8816.6213    8679.0382   -58.816487    -76.13467    123.35894    40.500002    40.500002    40.500002    34.182162   -3.3237354 
     319       0.1595    318.57907    -13130.71    8713.1307    8682.1139    8797.8506    8659.4275   -57.758155   -75.845867    125.54751    40.500002    40.500002    40.500002    34.102893   -3.3238468 
     320         0.16    309.70619   -13135.727    8615.4207    8587.6985    8699.6849    8558.8786   -58.272744   -74.811316    127.92236    40.500002    40.500002    40.500002    34.026744   -3.3239545 
     321       0.1605    310.50026   -13135.727      8599.16    8574.4837    8682.2253    8540.7711   -57.201925   -74.454002    129.61018    40.500002    40.500002    40.500002     33.95471   -3.3240571 
     322        0.161    311.26944   -13135.728     8583.359    8561.6732      8665.22    8523.1837    -56.10232   -74.062769    131.05878    40.500002    40.500002    40.500002    33.885492   -3.3241566 
     323       0.1615    312.01216   -13135.728    8568.0543    8549.2975    8648.7162    8506.1491   -54.984446    -73.65548    132.25268    40.500002    40.500002    40.500002    33.819308   -3.3242526 
     324        0.162    312.72688   -13135.728    8553.2602    8537.3679    8632.7513    8489.6615   -53.837567   -73.228528    133.20517    40.500002    40.500002    40.500002    33.756363   -3.3243449 
     325       0.1625    313.41211   -13135.728    8539.0137    8525.9132    8617.3739    8473.7541   -52.641565   -72.758479    133.93461    40.500002    40.500002    40.500002    33.696864   -3.3244335 
     326        0.163    314.06644   -13135.728    8525.3849    8515.0129    8602.6532    8458.4884   -51.382791   -72.245559    134.45117    40.500002    40.500002    40.500002     33.64102   -3.3245181 
     327       0.1635    314.68853   -13135.728    8512.4173    8504.7116    8588.6243     8443.916    -50.05459   -71.688264    134.75622    40.500002    40.500002    40.500002    33.589023   -3.3245985 
     328        0.164     315.2771   -13135.728    8500.1059    8494.9811    8575.2891    8430.0476   -48.646561   -71.072427    134.87155    40.500002    40.500002    40.500002    33.541047   -3.3246745 
     329       0.1645    315.83097   -13135.728    8488.4631    8485.8275    8562.6763    8416.8856   -47.158569   -70.399147     134.7919    40.500002    40.500002    40.500002    33.497273   -3.3247461 
     330        0.165    308.17451   -13139.953    8409.5801    8409.0518    8483.7269    8335.9615   -47.244773   -68.656714    135.03596    40.500002    40.500002    40.500002    33.457884   -3.3248131 
     331       0.1655    308.65222   -13139.953     8399.429    8401.1495    8472.7533    8324.3844   -45.573599   -67.812843    134.54455    40.500002    40.500002    40.500002    33.423179   -3.3248748 
     332        0.166    309.09813   -13139.953     8389.904     8393.743     8462.506    8313.4629   -43.764441   -66.876742    133.85313    40.500002    40.500002    40.500002    33.392476   -3.3249324 
     333       0.1665     309.5114   -13139.953    8381.0417    8386.8803    8453.0321    8303.2128   -41.805492   -65.867525    132.93808    40.500002    40.500002    40.500002    33.365893   -3.3249859 
     334        0.167     309.8913   -13139.953     8372.867    8380.5755     8444.356    8293.6695   -39.704017   -64.825518    131.79856    40.500002    40.500002    40.500002    33.343531    -3.325035 
     335       0.1675    310.23717   -13139.954    8365.4035    8374.8596    8436.4906    8284.8603   -37.469392   -63.767425    130.44885    40.500002    40.500002    40.500002    33.325488   -3.3250797 
     336        0.168    310.54844   -13139.954    8358.6451    8369.7295    8429.4369    8276.7688   -35.100172   -62.682421     128.8968    40.500002    40.500002    40.500002    33.311846   -3.3251199 
     337       0.1685    310.82464   -13139.954    8352.6076    8365.1941     8423.226    8269.4027   -32.589599   -61.542107    127.16251    40.500002    40.500002    40.500002    33.302674   -3.3251556 
     338        0.169    311.06539   -13139.954    8347.3018    8361.2751    8417.8736    8262.7566    -29.92799   -60.344841    125.28365    40.500002    40.500002    40.500002    33.298014   -3.3251867 
     339       0.1695    311.27042   -13139.954    8342.7197    8357.9697    8413.3691    8256.8204   -27.120773   -59.104413     123.2754    40.500002    40.500002    40.500002    33.297883   -3.3252132 
     340         0.17    305.71977    -13142.91    8291.3346    8307.1974    8362.9187    8203.8878   -25.466218   -56.875494    121.59571    40.500002    40.500002    40.500002    33.302302    -3.325235 
     341       0.1705    305.85362    -13142.91    8288.2071    8305.1095    8360.1061    8199.4058   -22.444521   -55.492934    119.34343    40.500002    40.500002    40.500002     33.31097   -3.3252523 
     342        0.171    305.95569    -13142.91    8285.7211    8303.5703    8358.0335    8195.5596   -19.287417   -54.054294     116.9427    40.500002    40.500002    40.500002    33.323703   -3.3252655 
     343       0.1715    306.02609    -13142.91     8283.881    8302.5701     8356.714     8192.359   -15.999161   -52.599815    114.37905    40.500002    40.500002    40.500002    33.340472   -3.3252746 
     344        0.172      306.065    -13142.91    8282.6533    8302.0686    8356.1125    8189.7788   -12.608568   -51.118927    111.65284    40.500002    40.500002    40.500002    33.361227   -3.3252797 
     345       0.1725    306.07268    -13142.91     8282.037    8302.0637    8356.2256    8187.8216   -9.1303787   -49.604373    108.77593    40.500002    40.500002    40.500002     33.38591   -3.3252806 
     346        0.173    306.04949    -13142.91    8282.0342     8302.558    8357.0603    8186.4843   -5.5666178   -48.065759    105.75134    40.500002    40.500002    40.500002    33.414456   -3.3252776 
     347       0.1735    305.99585    -13142.91    8282.6306    8303.5448    8358.5811     8185.766   -1.9062536    -46.53983    102.56068    40.500002    40.500002    40.500002    33.446784   -3.3252707 
     348        0.174     305.9123    -13142.91    8283.7928    8304.9955     8360.729     8185.654    1.8443492   -45.044011    99.211357    40.500002    40.500002    40.500002    33.482785   -3.3252599 
     349       0.1745    305.79946    -13142.91    8285.4955     8306.913     8363.456    8186.1174    5.6837818   -43.579031    95.719197    40.500002    40.500002    40.500002    33.522341   -3.3252453 
     350        0.175    302.82901   -13144.372    8264.1974    8285.3169    8343.6347    8163.6406    9.0141915    -41.60982    92.321309    40.500002    40.500002    40.500002    33.565315    -3.325227 
     351       0.1755    302.66151   -13144.372    8266.8735    8288.0655    8347.4013    8165.1538    13.029235   -40.235717    88.579051    40.500002    40.500002    40.500002    33.611243   -3.3252054 
     352        0.176     302.4691   -13144.372    8269.9585    8291.1704    8351.5871     8167.118    17.125788   -38.909092    84.699737    40.500002    40.500002    40.500002    33.660059   -3.3251805 
     353       0.1765     302.2527   -13144.372    8273.4182    8294.6151    8356.1449    8169.4947    21.303152   -37.618438    80.695823    40.500002    40.500002    40.500002    33.711584   -3.3251525 
     354        0.177    302.01331   -13144.372    8277.2301    8298.3846    8361.0309    8172.2748    25.573581    -36.37643    76.557281    40.500002    40.500002    40.500002     33.76564   -3.3251216 
     355       0.1775    301.75195   -13144.372    8281.3575    8302.4453    8366.1867    8175.4406     29.91649   -35.172169    72.301958    40.500002    40.500002    40.500002    33.822041   -3.3250878 
     356        0.178    301.46971   -13144.372    8285.7771    8306.7891    8371.5804    8178.9618     34.31632   -34.011365    67.935949    40.500002    40.500002    40.500002      33.8806   -3.3250513 
     357       0.1785    301.16774   -13144.372    8290.4477    8311.3881    8377.1642    8182.7909    38.768673   -32.909642    63.441134    40.500002    40.500002    40.500002    33.941117   -3.3250123 
     358        0.179    300.84723   -13144.372    8295.3441    8316.2302    8382.9069    8186.8953    43.263154   -31.879705    58.814186    40.500002    40.500002    40.500002    34.003389   -3.3249709 
     359       0.1795    300.50939   -13144.372    8300.4279    8321.2881    8388.7773    8191.2184    47.804445    -30.95512    54.052855    40.500002    40.500002    40.500002    34.067215   -3.3249272 
     360         0.18    300.15549   -13144.372    8305.6847    8326.5382    8394.7672    8195.7487    52.400052    -30.16465    49.183514    40.500002    40.500002    40.500002    34.132395   -3.3248815 
     361       0.1805    299.78679   -13144.372    8311.1163    8331.9728    8400.8864    8200.4897    57.051436   -29.531821    44.229868    40.500002    40.500002    40.500002    34.198729   -3.3248338 
     362        0.181    299.40463   -13144.372    8316.7055    8337.5791    8407.0977    8205.4396    61.749466   -29.068891    39.203557    40.500002    40.500002    40.500002    34.266004   -3.3247844 
     363       0.1815    299.01031   -13144.372    8322.4649    8343.3829    8413.3881    8210.6237    66.483281   -28.768662    34.104671    40.500002    40.500002    40.500002    34.334036   -3.3247334 
     364        0.182    298.60521   -13144.372    8328.3727    8349.3721    8419.7252    8216.0209    71.237953   -28.640669    28.926798    40.500002    40.500002    40.500002    34.402615   -3.3246811 
     365       0.1825    298.19068   -13144.372     8334.413    8355.5139    8426.1141     8221.611    76.014584   -28.702546    23.683074    40.500002    40.500002    40.500002    34.471525   -3.3246275 
     366        0.183    297.76813   -13144.372    8340.5868    8361.7903    8432.5738    8227.3962    80.809147   -28.963866    18.402264    40.500002    40.500002    40.500002    34.540558   -3.3245729 
     367       0.1835    297.33895   -13144.372    8346.8875    8368.1791    8439.1176    8233.3656    85.600007   -29.415848    13.093355    40.500002    40.500002    40.500002     34.60951   -3.3245174 
     368        0.184    296.90452   -13144.372    8353.3223    8374.7028    8445.7788    8239.4853    90.350743   -30.029643     7.785617    40.500002    40.500002    40.500002    34.678189   -3.3244613 
     369       0.1845     296.4662   -13144.372    8359.8672    8381.3355    8452.5431     8245.723    95.061491   -30.807645    2.5058133    40.500002    40.500002    40.500002    34.746408   -3.3244046 
     370        0.185    298.01268   -13143.344    8383.0153    8405.0431    8475.5746    8268.4282    99.953622   -32.145876   -2.7969447    40.500002    40.500002    40.500002    34.813986   -3.3243476 
     371       0.1855    297.56848   -13143.344    8389.7666     8411.894    8482.5101    8274.8957    104.54176   -33.284231   -8.0088856    40.500002    40.500002    40.500002    34.881048   -3.3242902 
     372        0.186    297.12301   -13143.344    8396.6137    8418.8546    8489.5086     8281.478    109.06442   -34.611214   -13.164673    40.500002    40.500002    40.500002    34.947269   -3.3242326 
     373       0.1865    296.67762   -13143.344    8403.5267    8425.8922    8496.5352    8288.1526    113.51758   -36.137772   -18.262385    40.500002    40.500002    40.500002    35.012473   -3.3241751 
     374        0.187     296.2336   -13143.344    8410.4439    8432.9337    8503.5311    8294.8669    117.86591   -37.863199   -23.304058    40.500002    40.500002    40.500002    35.076484   -3.3241177 
     375       0.1875    295.79223   -13143.344     8417.351    8439.9629    8510.4667    8301.6233    122.07811    -39.77015    -28.27488    40.500002    40.500002    40.500002    35.139144   -3.3240606 
[...]
    1913       0.9565    299.21513   -13126.308     9352.225    9381.6559    9473.3104    9201.7088    139.56477   -162.84512    59.658083    40.500002    40.500002    40.500002    38.076594    -3.320244 
    1914        0.957    299.15941   -13126.308    9354.2783    9387.6697    9473.7922    9201.3731    142.21559   -163.57577    57.078769    40.500002    40.500002    40.500002    38.091547   -3.3202368 
    1915       0.9575    299.10609   -13126.308    9356.2466     9393.664    9474.1709     9200.905    144.89472   -164.11056    54.518603    40.500002    40.500002    40.500002    38.106618   -3.3202299 
    1916        0.958    299.05552   -13126.308     9358.124     9399.631    9474.4077    9200.3333    147.58282   -164.44005    51.965027    40.500002    40.500002    40.500002    38.121771   -3.3202234 
    1917       0.9585    299.00803   -13126.308    9359.9032    9405.5572    9474.4807    9199.6716    150.26101   -164.54637    49.405638    40.500002    40.500002    40.500002    38.136964   -3.3202172 
    1918        0.959    298.96397   -13126.308    9361.5714    9411.4473    9474.3521    9198.9147    152.90156   -164.42542    46.838589    40.500002    40.500002    40.500002    38.152155   -3.3202115 
    1919       0.9595    298.92368   -13126.308    9363.1058    9417.2978      9473.98    9198.0397    155.48444    -164.0804    44.267563    40.500002    40.500002    40.500002    38.167302   -3.3202063 
    1920         0.96    299.44375   -13126.021    9369.0916    9427.7511    9477.9347    9201.5889    158.09126    -163.5056    41.656101    40.500002    40.500002    40.500002    38.182352   -3.3202017 
    1921       0.9605    299.41176   -13126.021     9370.301    9433.4953    9476.9718    9200.4359    160.55525   -162.80145    39.054545    40.500002    40.500002    40.500002    38.197315   -3.3201975 
    1922        0.961     299.3841   -13126.021    9371.3712    9439.2099    9475.7285    9199.1752    162.95603   -161.92633    36.433618    40.500002    40.500002    40.500002    38.212166   -3.3201939 
    1923       0.9615     299.3611   -13126.021     9372.312    9444.9105    9474.2272    9197.7982    165.30911   -160.87284    33.777033    40.500002    40.500002    40.500002    38.226855    -3.320191 
    1924        0.962    299.34309   -13126.021    9373.0897    9450.5525    9472.4629    9196.2537     167.6156   -159.64071    31.068666    40.500002    40.500002    40.500002     38.24133   -3.3201886 
    1925       0.9625     299.3304   -13126.021    9373.6909    9456.1125    9470.4584    9194.5017    169.87631   -158.23627    28.287368    40.500002    40.500002    40.500002    38.255553    -3.320187 
    1926        0.963    299.32333   -13126.021    9374.0841    9461.5738    9468.1763    9192.5023    172.07538   -156.67694    25.449189    40.500002    40.500002    40.500002    38.269486   -3.3201861 
    1927       0.9635    299.32218   -13126.021    9374.2392    9466.9045    9465.5773    9190.2358    174.18895   -154.97062    22.525614    40.500002    40.500002    40.500002    38.283089   -3.3201859 
    1928        0.964    299.32724   -13126.021    9374.1434    9472.0804    9462.6578    9187.6922    176.22409   -153.08614    19.498195    40.500002    40.500002    40.500002    38.296329   -3.3201866 
    1929       0.9645    299.33878   -13126.021    9373.7977    9477.0825    9459.4287     9184.882     178.1848   -150.99723    16.376809    40.500002    40.500002    40.500002    38.309164   -3.3201881 
    1930        0.965    299.35708   -13126.021    9373.2082    9481.9172    9455.8866    9181.8209    180.07111   -148.69577    13.167618    40.500002    40.500002    40.500002    38.321553   -3.3201904 
    1931       0.9655    299.38238   -13126.021     9372.365    9486.5688    9452.0299    9178.4962    181.86817   -146.20476    9.8793658    40.500002    40.500002    40.500002    38.333463   -3.3201937 
    1932        0.966    299.41495   -13126.021    9371.2745    9491.0285    9447.8821    9174.9128    183.58958   -143.54345    6.5213202    40.500002    40.500002    40.500002    38.344861   -3.3201979 
    1933       0.9665    299.45506   -13126.021    9369.9448    9495.2956    9443.4593    9171.0795    185.22506   -140.69221    3.1036495    40.500002    40.500002    40.500002    38.355716   -3.3202031 
    1934        0.967    299.50296   -13126.021     9368.368    9499.3647    9438.7554    9166.9839    186.77192   -137.66764  -0.37471953    40.500002    40.500002    40.500002    38.365995   -3.3202093 
    1935       0.9675    299.55889   -13126.021    9366.5293    9503.2274    9433.7624    9162.5982     188.2299   -134.47649   -3.9057602    40.500002    40.500002    40.500002    38.375656   -3.3202165 
    1936        0.968    299.62309   -13126.021    9364.4365    9506.8802    9428.4942    9157.9349    189.57717   -131.10047   -7.4744406    40.500002    40.500002    40.500002    38.384674   -3.3202248 
    1937       0.9685    299.69576   -13126.021    9362.0818     9510.305    9422.9383     9153.002    190.80363   -127.53336   -11.057587    40.500002    40.500002    40.500002    38.393014   -3.3202342 
    1938        0.969    299.77712   -13126.021    9359.4731    9513.4957    9417.1005     9147.823      191.919   -123.77071   -14.634102    40.500002    40.500002    40.500002    38.400649   -3.3202447 
    1939       0.9695    299.86736   -13126.021    9356.6227    9516.4407    9410.9919    9142.4355    192.93666   -119.84029   -18.170067    40.500002    40.500002    40.500002    38.407559   -3.3202564 
    1940         0.97    299.96664   -13126.021     9353.561    9519.1574    9404.6374     9136.888    193.85323   -115.76942    -21.65302    40.500002    40.500002    40.500002    38.413717   -3.3202692 
    1941       0.9705    300.07514   -13126.021    9350.2916    9521.6432    9398.0322    9131.1993    194.67416   -111.56921   -25.083465    40.500002    40.500002    40.500002    38.419096   -3.3202832 
    1942        0.971      300.193   -13126.021    9346.8029      9523.88    9391.1525    9125.3761    195.40475   -107.27135   -28.453945    40.500002    40.500002    40.500002    38.423661   -3.3202984 
    1943       0.9715    300.32034   -13126.021    9343.1085    9525.8965    9383.9773    9119.4516     196.0319   -102.86311   -31.739013    40.500002    40.500002    40.500002    38.427389   -3.3203149 
    1944        0.972    300.45726   -13126.021    9339.2108    9527.6928    9376.4996    9113.4401    196.54346   -98.355216   -34.928944    40.500002    40.500002    40.500002    38.430259   -3.3203326 
    1945       0.9725    300.60385   -13126.021    9335.0894    9529.2528    9368.6897    9107.3257    196.93893   -93.756516   -38.015671    40.500002    40.500002    40.500002    38.432242   -3.3203515 
    1946        0.973    300.76018   -13126.021    9330.7426     9530.578     9360.537    9101.1129    197.22219   -89.056257   -40.970331    40.500002    40.500002    40.500002    38.433319   -3.3203717 
    1947       0.9735    300.92629   -13126.021    9326.1779    9531.6705    9352.0717    9094.7914    197.37111   -84.243359   -43.801741    40.500002    40.500002    40.500002    38.433454   -3.3203932 
    1948        0.974    301.10222   -13126.021    9321.3661    9532.5097     9343.253    9088.3357    197.37494   -79.314556   -46.495286    40.500002    40.500002    40.500002    38.432625   -3.3204159 
    1949       0.9745    301.28797   -13126.021    9316.2946    9533.0889    9334.0768     9081.718    197.24724   -74.295872   -49.037806    40.500002    40.500002    40.500002    38.430817   -3.3204399 
    1950        0.975    300.74176   -13126.404     9304.783    9527.1255    9318.3072    9068.9164    196.84983   -69.217806   -51.433102    40.500002    40.500002    40.500002    38.428009   -3.3204652 
    1951       0.9755     300.9471   -13126.404    9299.1734    9527.1231    9308.4238    9061.9733    196.50121   -64.099626   -53.628349    40.500002    40.500002    40.500002    38.424151   -3.3204917 
    1952        0.976    301.16273   -13126.404    9293.3039    9526.8333    9298.2166    9054.8619    196.04606   -58.961546   -55.637753    40.500002    40.500002    40.500002    38.419199   -3.3205196 
    1953       0.9765    301.38854   -13126.404    9287.1915    9526.2584    9287.7211    9047.5948    195.49083   -53.834214   -57.473436    40.500002    40.500002    40.500002    38.413147   -3.3205488 
    1954        0.977    301.62444   -13126.404    9280.8212    9525.3868    9276.9255    9040.1512    194.82224   -48.734504   -59.132808    40.500002    40.500002    40.500002    38.405974   -3.3205793 
    1955       0.9775     301.8703   -13126.404    9274.2081    9524.2227    9265.8434    9032.5581    194.04829   -43.679451   -60.604346    40.500002    40.500002    40.500002    38.397667    -3.320611 
    1956        0.978    302.12598   -13126.404    9267.3541    9522.7425    9254.4855    9024.8343    193.19102   -38.688357   -61.876974    40.500002    40.500002    40.500002    38.388209   -3.3206441 
    1957       0.9785    302.39133   -13126.404    9260.2289    9520.8912    9242.8056    9016.9899    192.25312   -33.786893   -62.953635    40.500002    40.500002    40.500002    38.377584   -3.3206784 
    1958        0.979    302.66615   -13126.404    9252.8224    9518.6641    9230.7717    9009.0315    191.21957   -28.980073   -63.834758    40.500002    40.500002    40.500002    38.365782   -3.3207139 
    1959       0.9795     302.9502   -13126.404    9245.1562    9516.0961    9218.3862    9000.9863    190.07687   -24.251277   -64.524031    40.500002    40.500002    40.500002    38.352812   -3.3207506 
    1960         0.98    301.62162   -13127.242    9223.7533     9499.544    9192.0704    8979.6455     188.4479   -19.574983   -65.087954    40.500002    40.500002    40.500002    38.338681   -3.3207885 
    1961       0.9805    301.92323   -13127.242    9215.5781    9496.2855    9179.0102    8971.4385    187.04764   -15.009618   -65.436785    40.500002    40.500002    40.500002    38.323368   -3.3208275 
    1962        0.981    302.23454   -13127.242    9207.1304    9492.6631    9165.6047    8963.1235    185.51179   -10.543718   -65.634156    40.500002    40.500002    40.500002    38.306774   -3.3208677 
    1963       0.9815    302.55521   -13127.242    9198.4289    9488.6781    9151.8837    8954.7248    183.82757   -6.1862208    -65.66805    40.500002    40.500002    40.500002    38.288918   -3.3209091 
    1964        0.982    302.88483   -13127.242    9189.5074    9484.3522    9137.8994    8946.2707    181.99528   -1.9305017   -65.547858    40.500002    40.500002    40.500002    38.269837   -3.3209517 
    1965       0.9825    303.22296   -13127.242    9180.4196    9479.7375    9123.7075    8937.8138     180.0181    2.1898431   -65.293247    40.500002    40.500002    40.500002    38.249593   -3.3209954 
    1966        0.983    303.56911   -13127.242    9171.2141    9474.8788    9109.3632    8929.4004    177.88958    6.1617463   -64.899611    40.500002    40.500002    40.500002    38.228259   -3.3210402 
    1967       0.9835    303.92276   -13127.242    9161.9283    9469.7922    9094.9259    8921.0668    175.61474    10.001877   -64.359656    40.500002    40.500002    40.500002    38.205914   -3.3210859 
    1968        0.984    304.28338   -13127.242    9152.5932    9464.4938    9080.4428    8912.8428    173.22811     13.70645    -63.67825    40.500002    40.500002    40.500002    38.182622   -3.3211325 
    1969       0.9845     304.6504   -13127.242    9143.2481    9459.0047    9065.9582    8904.7815    170.75583    17.254685   -62.839779    40.500002    40.500002    40.500002    38.158455   -3.3211799 
    1970        0.985    302.51161   -13128.541    9113.0503     9432.236    9030.6428    8876.2721    167.58545    20.719751   -61.917717    40.500002    40.500002    40.500002    38.133488   -3.3212281 
    1971       0.9855    302.88907   -13128.541    9103.7876    9426.3664    9016.2763      8868.72    164.93163    23.895143   -60.735488    40.500002    40.500002    40.500002    38.107796   -3.3212769 
    1972        0.986     303.2731   -13128.541    9094.5438    9420.2586    9001.9269    8861.4458    162.19088     26.85373   -59.370387    40.500002    40.500002    40.500002    38.081244   -3.3213265 
    1973       0.9865    303.66301   -13128.541     9085.324    9413.9212    8987.5915    8854.4594    159.33419    29.600826   -57.826462    40.500002    40.500002    40.500002    38.053919   -3.3213769 
    1974        0.987    304.05814   -13128.541    9076.1248    9407.3363    8973.2684    8847.7697    156.34857    32.151342   -56.112837    40.500002    40.500002    40.500002    38.025905    -3.321428 
    1975       0.9875     304.4578   -13128.541    9066.9705    9400.5256     8958.982    8841.4039    153.24707    34.518384   -54.236767    40.500002    40.500002    40.500002    37.997291   -3.3214796 
    1976        0.988    304.86128   -13128.541    9057.8703    9393.5041    8944.7354    8835.3715    150.02017    36.729335   -52.223988    40.500002    40.500002    40.500002    37.968174   -3.3215318 
    1977       0.9885    305.26788   -13128.541    9048.8254    9386.2845     8930.535    8829.6568    146.65042    38.799991   -50.093827    40.500002    40.500002    40.500002     37.93864   -3.3215843 
    1978        0.989    305.67691   -13128.541    9039.8519    9378.8797    8916.4051     8824.271    143.16312    40.741029   -47.847389    40.500002    40.500002    40.500002    37.908781   -3.3216372 
    1979       0.9895    306.08766   -13128.541    9030.9861    9371.3298    8902.3737    8819.2549    139.56474    42.562398   -45.496643    40.500002    40.500002    40.500002    37.878694   -3.3216903 
    1980         0.99    303.24971   -13130.221    8995.2273    9336.4241    8861.7248    8787.5328    135.04528    44.393488   -43.164028    40.500002    40.500002    40.500002    37.848485   -3.3217435 
    1981       0.9905    303.66091   -13130.221    8986.6118    9328.6573    8847.9693    8783.2087    131.27397    45.924202   -40.691055    40.500002    40.500002    40.500002    37.818272   -3.3217966 
    1982        0.991    304.07435   -13130.221    8978.0736    9320.7238    8834.2964    8779.2008    127.40857    47.310368   -38.166007    40.500002    40.500002    40.500002    37.787854   -3.3218501 
    1983       0.9915    304.48933   -13130.221    8969.6325    9312.6376    8820.7068    8775.5529    123.47453    48.544591    -35.60434    40.500002    40.500002    40.500002    37.757327   -3.3219037 
    1984        0.992    304.90515   -13130.221    8961.2782    9304.3806    8807.1773    8772.2768     119.5076    49.618441   -33.021395    40.500002    40.500002    40.500002    37.726775   -3.3219574 
    1985       0.9925    305.32111   -13130.221    8953.0061    9295.9433    8793.7062    8769.3689     115.4933    50.554631   -30.449681    40.500002    40.500002    40.500002    37.696277   -3.3220112 
    1986        0.993     305.7365   -13130.221    8944.7834    9287.2934    8780.2697    8766.7871    111.42031    51.390055   -27.920434    40.500002    40.500002    40.500002    37.665904   -3.3220649 
    1987       0.9935    306.15063   -13130.221    8936.6084    9278.4187    8766.8954    8764.5113     107.3076    52.148046    -25.42916    40.500002    40.500002    40.500002    37.635734   -3.3221184 
    1988        0.994    306.56281   -13130.221    8928.5083    9269.3356    8753.6423    8762.5469    103.16585    52.816843   -22.996636    40.500002    40.500002    40.500002    37.605842   -3.3221717 
    1989       0.9945    306.97234   -13130.221    8920.5178    9260.0706    8740.5603    8760.9226     98.97266    53.401201   -20.628736    40.500002    40.500002    40.500002    37.576305   -3.3222246 
    1990        0.995    303.68928   -13132.128    8881.9802    9219.7401    8697.6654     8728.535    93.741096    54.095202   -18.398722    40.500002    40.500002    40.500002    37.547189   -3.3222771 
    1991       0.9955    304.09058   -13132.128    8874.2314    9210.1835    8684.9443    8727.5662     89.46162    54.547633   -16.198581    40.500002    40.500002    40.500002    37.518578    -3.322329 
    1992        0.996    304.49027   -13132.128    8866.5453    9200.4409    8672.3058    8726.8894    85.128611    54.943366   -14.066543    40.500002    40.500002    40.500002    37.490209   -3.3223806 
    1993       0.9965    304.88771   -13132.128    8858.9397    9190.5456    8659.7835    8726.4901    80.752872    55.315871   -11.990358    40.500002    40.500002    40.500002    37.462141    -3.322432 
    1994        0.997    305.28225   -13132.128    8851.4463    9180.5415    8647.4193    8726.3779     76.35453    55.694287   -9.9663578    40.500002    40.500002    40.500002    37.434436    -3.322483 
    1995       0.9975    305.67324   -13132.128    8844.0947    9170.4521    8635.2413    8726.5908    71.951163    56.092485   -7.9884642    40.500002    40.500002    40.500002    37.407157   -3.3225335 
    1996        0.998    306.06005   -13132.128    8836.8813    9160.2577    8623.2717    8727.1146    67.572402    56.493078   -6.0666825    40.500002    40.500002    40.500002    37.380348   -3.3225835 
    1997       0.9985    306.44206   -13132.128    8829.8221     9149.988    8611.5391    8727.9393    63.243691    56.890136   -4.2202652    40.500002    40.500002    40.500002    37.354059   -3.3226329 
    1998        0.999    306.81866   -13132.128      8822.95     9139.671    8600.0963    8729.0827    58.982793    57.267525   -2.4499453    40.500002    40.500002    40.500002    37.328349   -3.3226815 
    1999       0.9995    307.18928   -13132.128    8816.2828    9129.3054    8588.9765    8730.5664    54.802506    57.603014  -0.76202111    40.500002    40.500002    40.500002    37.303258   -3.3227294 
    2000            1    303.77668    -13134.08    8778.4341    9087.2571    8547.8529    8700.1922    49.654566    58.054652   0.82565941    40.500002    40.500002    40.500002    37.278821   -3.3227765 
Loop time of 8.81725 on 10 procs for 2000 steps with 4000 atoms

Performance: 9.799 ns/day, 2.449 hours/ns, 226.828 timesteps/s
93.8% CPU use with 10 MPI tasks x no OpenMP threads

MPI task timing breakdown:
Section |  min time  |  avg time  |  max time  |%varavg| %total
---------------------------------------------------------------
Pair    | 5.0923     | 5.3293     | 5.5173     |   4.9 | 60.44
Neigh   | 0          | 0          | 0          |   0.0 |  0.00
Comm    | 0.20346    | 0.32263    | 0.49644    |  17.3 |  3.66
Output  | 2.6509     | 2.7894     | 2.902      |   5.3 | 31.64
Modify  | 0.15473    | 0.20881    | 0.26213    |   7.4 |  2.37
Other   |            | 0.1671     |            |       |  1.90

Nlocal:        400.000 ave         400 max         400 min
Histogram: 10 0 0 0 0 0 0 0 0 0
Nghost:        3182.00 ave        3182 max        3182 min
Histogram: 10 0 0 0 0 0 0 0 0 0
Neighs:        42578.0 ave       42578 max       42578 min
Histogram: 10 0 0 0 0 0 0 0 0 0

Total # of neighbors = 425780
Ave neighs/atom = 106.44500
Neighbor list builds = 0
Dangerous builds = 0
unfix 		1
unfix 		2

clear
next t
next i
next r
jump Timestep_determination.lmpin
#####################################################################################################################
# Course: Theory, Modelling, and Simulation of Microstructures (TMS) - Summer semester 2021
# Tutors: Dr. Arun Prakash, Vimal Muthusamy
# Description: Script to determine the timestep for a given interatomic potential
######################################################################################################################

# ------------------------ VARIABLES INITIALIZATION ----------------------------
variable i loop 6
variable t index 0.0001 0.0005 0.001 0.002 0.005 0.01
variable r index 10000 2000 1000 500 200 100 # No of steps for 1 ps

log log.time_step_$t.lammps
log log.time_step_0.001.lammps
