
# ------------------------ INITIALIZATION ----------------------------
clear
variable        latt0 equal 4.05000018187522  ### provide the lattice constant from your calculation
variable        lblock  equal 10

units           metal
atom_style      atomic
boundary        p  p  p
newton          off  off
processors      *  *  *


# ---------- STRUCTURE GENERATION ---------------------
lattice         fcc  ${latt0}  orient  x  1  0  0  orient  y  0  1  0  orient  z  0  0  1  origin  0.0    0.0    0.0
lattice         fcc  4.05000018187522  orient  x  1  0  0  orient  y  0  1  0  orient  z  0  0  1  origin  0.0    0.0    0.0
Lattice spacing in x,y,z = 4.0500002 4.0500002 4.0500002
region          sim_region  block  0  ${lblock}  0  ${lblock}  0  ${lblock}  units  lattice
region          sim_region  block  0  10  0  ${lblock}  0  ${lblock}  units  lattice
region          sim_region  block  0  10  0  10  0  ${lblock}  units  lattice
region          sim_region  block  0  10  0  10  0  10  units  lattice
create_box      1  sim_region
Created orthogonal box = (0.0000000 0.0000000 0.0000000) to (40.500002 40.500002 40.500002)
  1 by 2 by 5 MPI processor grid
create_atoms    1  box
Created 4000 atoms
  using lattice units in orthogonal box = (0.0000000 0.0000000 0.0000000) to (40.500002 40.500002 40.500002)
  create_atoms CPU = 0.001 seconds


# ------------------------ FORCE FIELDS ------------------------------
pair_style      eam/alloy ### TYPE OF POTENTIAL (eam (OR) eam/alloy)
pair_coeff      *  * /home03/nm95xule/TMS_SS2022Nan/Mishin_updated-Al-Co-2013.eam.alloy Al  ### POTENTIAL FILENAME

variable        natoms equal "count(all)"
variable        ecoh equal "pe/v_natoms"


# ------------------------- SETTINGS ---------------------------------
neighbor     	2.0 bin
neigh_modify 	delay 3
timestep 	$t
timestep 	0.0001
thermo 		1
thermo_style 	custom step time temp etotal press pxx pyy pzz pxy pyz pxz lx ly lz fnorm v_ecoh

velocity 	all create 300.0 16723 rot yes dist gaussian


#--------------- ENERGY EQUILIBRATION --------------------------
fix 		2 all temp/rescale 10 300.0 300.0 1.0 0.5
fix 		1 all nve

run 		$r
run 		10000
Neighbor list info ...
  update every 1 steps, delay 3 steps, check yes
  max neighbors/atom: 2000, page size: 100000
  master list distance cutoff = 8.499539
  ghost atom cutoff = 8.499539
  binsize = 4.2497695, bins = 10 10 10
  1 neighbor lists, perpetual/occasional/extra = 1 0 0
  (1) pair eam/alloy, perpetual
      attributes: half, newton off
      pair build: half/bin/newtoff
      stencil: full/bin/3d
      bin: standard
Per MPI rank memory allocation (min/avg/max) = 3.486 | 3.486 | 3.487 Mbytes
Step Time Temp TotEng Press Pxx Pyy Pzz Pxy Pyz Pxz Lx Ly Lz Fnorm v_ecoh 
       0            0          300   -13284.927    2493.3961    2492.1088    2488.1545    2499.9249    12.334899    1.2479016   -11.799564    40.500002    40.500002    40.500002 8.9842794e-15        -3.36 
       1       0.0001    299.99534   -13284.927    2493.4195     2492.133    2488.1792    2499.9463    12.334804    1.2477867   -11.799235    40.500002    40.500002    40.500002   0.16717388   -3.3599994 
       2       0.0002    299.98137   -13284.927    2493.4901    2492.2057    2488.2539    2500.0107    12.334604    1.2474548   -11.798283    40.500002    40.500002    40.500002   0.33433312   -3.3599976 
       3       0.0003    299.95808   -13284.927    2493.6163    2492.3353    2488.3868    2500.1269    12.334241    1.2470504   -11.796627    40.500002    40.500002    40.500002   0.50148059   -3.3599946 
       4       0.0004    299.92549   -13284.927    2493.7982     2492.522    2488.5779    2500.2948     12.33374    1.2465073   -11.794353    40.500002    40.500002    40.500002   0.66861501   -3.3599904 
       5       0.0005    299.88358   -13284.927    2494.0351     2492.765    2488.8268    2500.5136    12.332945    1.2458082   -11.791427    40.500002    40.500002    40.500002   0.83573181   -3.3599849 
       6       0.0006    299.83237   -13284.927    2494.3271    2493.0646    2489.1333    2500.7834    12.331934    1.2450349    -11.78788    40.500002    40.500002    40.500002    1.0028267   -3.3599783 
       7       0.0007    299.77185   -13284.927    2494.6745     2493.421    2489.4979    2501.1046    12.331096    1.2439785   -11.783846    40.500002    40.500002    40.500002    1.1698955   -3.3599705 
       8       0.0008    299.70205   -13284.927    2495.0782     2493.835    2489.9216     2501.478     12.32997    1.2429104   -11.778878    40.500002    40.500002    40.500002    1.3369337   -3.3599615 
       9       0.0009    299.62295   -13284.927    2495.5375    2494.3059    2490.4034    2501.9032    12.328292     1.241551   -11.773637    40.500002    40.500002    40.500002    1.5039376   -3.3599513 
      10        0.001    299.53457   -13284.927    2496.0527    2494.8341    2490.9439      2502.38    12.326781    1.2400055   -11.767989    40.500002    40.500002    40.500002    1.6709034   -3.3599398 
      11       0.0011    299.43691   -13284.927    2496.6246    2495.4203    2491.5438    2502.9096    12.325423    1.2385543   -11.761273    40.500002    40.500002    40.500002    1.8378268   -3.3599272 
      12       0.0012    299.32999   -13284.927    2497.2519    2496.0634    2492.2017    2503.4906    12.324046     1.236998   -11.754129    40.500002    40.500002    40.500002    2.0047045   -3.3599134 
      13       0.0013     299.2138   -13284.927    2497.9346    2496.7632    2492.9176    2504.1231    12.322305    1.2353912   -11.746578    40.500002    40.500002    40.500002     2.171533   -3.3598984 
      14       0.0014    299.08837   -13284.927    2498.6728    2497.5199    2493.6918    2504.8067    12.320095    1.2330942   -11.738007    40.500002    40.500002    40.500002    2.3383077   -3.3598822 
      15       0.0015     298.9537   -13284.927    2499.4669    2498.3341    2494.5244    2505.5423     12.31786    1.2308158   -11.728663    40.500002    40.500002    40.500002    2.5050253   -3.3598648 
      16       0.0016     298.8098   -13284.927    2500.3152    2499.2036    2495.4138    2506.3281    12.315579    1.2286698   -11.719386    40.500002    40.500002    40.500002    2.6716816   -3.3598462 
      17       0.0017    298.65669   -13284.927    2501.2189    2500.1297    2496.3615    2507.1656    12.313483    1.2266623   -11.709598    40.500002    40.500002    40.500002    2.8382736   -3.3598264 
      18       0.0018    298.49437   -13284.927     2502.178    2501.1127    2497.3671    2508.0543    12.311237    1.2247514   -11.699075    40.500002    40.500002    40.500002    3.0047975   -3.3598054 
      19       0.0019    298.32287   -13284.927    2503.1913    2502.1515    2498.4295     2508.993    12.308492    1.2224501   -11.688032    40.500002    40.500002    40.500002    3.1712488   -3.3597833 
      20        0.002    299.07109   -13284.446    2511.9804    2510.9642    2507.2539    2517.7231    12.343021    1.2240447   -11.712499    40.500002    40.500002    40.500002    3.3376242   -3.3597599 
      21       0.0021    298.88095   -13284.446    2513.1061    2512.1176    2508.4343    2518.7664    12.340218    1.2212674   -11.700148    40.500002    40.500002    40.500002    3.5041784   -3.3597353 
      22       0.0022    298.68163   -13284.446    2514.2867    2513.3274    2509.6721    2519.8606    12.337424    1.2185889   -11.687558    40.500002    40.500002    40.500002     3.670649   -3.3597096 
      23       0.0023    298.47316   -13284.446    2515.5221    2514.5932    2510.9676    2521.0055    12.334382    1.2156659   -11.674288    40.500002    40.500002    40.500002    3.8370322   -3.3596826 
      24       0.0024    298.25555   -13284.446    2516.8127    2515.9156    2512.3208    2522.2017    12.331159    1.2128313   -11.660322    40.500002    40.500002    40.500002     4.003324   -3.3596545 
      25       0.0025    298.02882   -13284.446    2518.1586     2517.295    2513.7319     2523.449    12.327995    1.2099447   -11.646172    40.500002    40.500002    40.500002     4.169521   -3.3596252 
      26       0.0026    297.79298   -13284.446    2519.5593    2518.7304    2515.2005     2524.747    12.324782    1.2068278   -11.631129    40.500002    40.500002    40.500002     4.335619   -3.3595947 
      27       0.0027    297.54806   -13284.446     2521.015    2520.2219    2516.7268    2526.0963    12.321255    1.2039526   -11.615727    40.500002    40.500002    40.500002    4.5016145   -3.3595631 
      28       0.0028    297.29408   -13284.446    2522.5256    2521.7695    2518.3108    2527.4965    12.317785    1.2009661   -11.599876    40.500002    40.500002    40.500002    4.6675036   -3.3595303 
      29       0.0029    297.03105   -13284.446    2524.0905    2523.3725    2519.9517    2528.9473    12.314154    1.1976303   -11.583535    40.500002    40.500002    40.500002    4.8332823   -3.3594963 
      30        0.003     298.3795   -13283.609    2539.1781    2538.4971     2535.088    2543.9493    12.375556    1.2027906   -11.629434    40.500002    40.500002    40.500002    4.9989469   -3.3594611 
      31       0.0031    298.09768   -13283.609    2540.8562     2540.216    2536.8473    2545.5052    12.372112    1.1994571   -11.612503    40.500002    40.500002    40.500002    5.1649456   -3.3594247 
      32       0.0032    297.80683   -13283.609    2542.5888    2541.9908    2538.6639    2547.1116    12.368533    1.1964566   -11.595075    40.500002    40.500002    40.500002     5.330823   -3.3593871 
      33       0.0033    297.50698   -13283.609    2544.3754    2543.8211    2540.5375    2548.7676    12.364807    1.1934128   -11.576868    40.500002    40.500002    40.500002    5.4965754   -3.3593484 
      34       0.0034    297.19815   -13283.609    2546.2155    2545.7063    2542.4675    2550.4726    12.361141    1.1901145   -11.558185    40.500002    40.500002    40.500002    5.6621987   -3.3593085 
      35       0.0035    296.88038   -13283.609    2548.1082    2547.6455    2544.4527    2552.2265    12.357308    1.1866617   -11.539079    40.500002    40.500002    40.500002    5.8276887   -3.3592674 
      36       0.0036    296.55367   -13283.609    2550.0533    2549.6377    2546.4933    2554.0289    12.353428    1.1832695   -11.519647    40.500002    40.500002    40.500002    5.9930415   -3.3592252 
      37       0.0037    296.21807   -13283.609      2552.05    2551.6821     2548.589     2555.879    12.349461    1.1800768   -11.499629    40.500002    40.500002    40.500002    6.1582526   -3.3591818 
      38       0.0038     295.8736   -13283.609    2554.0978    2553.7784    2550.7391    2557.7758    12.345516    1.1765334    -11.47929    40.500002    40.500002    40.500002    6.3233185   -3.3591373 
      39       0.0039    295.52028   -13283.609     2556.196    2555.9262    2552.9429    2559.7188     12.34153    1.1725517   -11.458163    40.500002    40.500002    40.500002    6.4882355   -3.3590916 
      40        0.004    297.57908   -13282.357    2578.4652    2578.2472    2575.2753    2581.8732    12.432633    1.1834505   -11.528588    40.500002    40.500002    40.500002    6.6529998   -3.3590448 
      41       0.0041    297.20663   -13282.357     2580.673     2580.506    2577.5963    2583.9167    12.428238    1.1780699   -11.507143    40.500002    40.500002    40.500002    6.8182838   -3.3589967 
      42       0.0042    296.82535   -13282.357    2582.9316    2582.8166    2579.9719    2586.0064    12.423685    1.1719495   -11.485142    40.500002    40.500002    40.500002    6.9834113   -3.3589474 
      43       0.0043    296.43528   -13282.357    2585.2405    2585.1781    2582.4011    2588.1423    12.418786    1.1652321   -11.462832    40.500002    40.500002    40.500002    7.1483798    -3.358897 
      44       0.0044    296.03644   -13282.357    2587.5995    2587.5903    2584.8846    2590.3237     12.41413    1.1576935   -11.439903    40.500002    40.500002    40.500002     7.313187   -3.3588455 
      45       0.0045    295.62887   -13282.357    2590.0084    2590.0532     2587.422      2592.55    12.410297    1.1485564   -11.416102    40.500002    40.500002    40.500002    7.4778302   -3.3587928 
      46       0.0046     295.2126   -13282.357    2592.4663    2592.5661    2590.0123    2594.8203    12.407475    1.1379144   -11.391329    40.500002    40.500002    40.500002     7.642306    -3.358739 
      47       0.0047    294.78767   -13282.357    2594.9729    2595.1292    2592.6553    2597.1342    12.405873    1.1261846   -11.365768    40.500002    40.500002    40.500002    7.8066106   -3.3586841 
      48       0.0048     294.3541   -13282.357    2597.5279     2597.742    2595.3507    2599.4909     12.40527    1.1136631   -11.339601    40.500002    40.500002    40.500002    7.9707417   -3.3586281 
      49       0.0049    293.91194   -13282.357    2600.1316    2600.4049    2598.0992    2601.8908    12.405683    1.1003853    -11.31328    40.500002    40.500002    40.500002    8.1346979   -3.3585709 
      50        0.005    296.73061   -13280.667    2629.9568    2630.3002    2628.0091     2631.561    12.531906    1.1117605   -11.407986    40.500002    40.500002    40.500002     8.298478   -3.3585127 
      51       0.0051    296.26878   -13280.667    2632.6727    2633.0765    2630.8802    2634.0614    12.532648    1.0987226   -11.380442    40.500002    40.500002    40.500002    8.4629896    -3.358453 
      52       0.0052    295.79837   -13280.667    2635.4378    2635.9028    2633.8059    2636.6048    12.533383     1.085119   -11.352741    40.500002    40.500002    40.500002    8.6273222   -3.3583922 
      53       0.0053    295.31941   -13280.667    2638.2518    2638.7778    2636.7862    2639.1914    12.534127    1.0709569    -11.32467    40.500002    40.500002    40.500002    8.7914729   -3.3583303 
      54       0.0054    294.83193   -13280.667     2641.115     2641.701    2639.8219     2641.822    12.534609    1.0556284   -11.296227    40.500002    40.500002    40.500002    8.9554407   -3.3582673 
      55       0.0055    294.33598   -13280.667    2644.0291    2644.6736    2642.9145    2644.4992    12.534676    1.0397833   -11.267158    40.500002    40.500002    40.500002    9.1192253   -3.3582032 
      56       0.0056     293.8316   -13280.667     2646.996     2647.697    2646.0664    2647.2244    12.533659    1.0236429   -11.237383    40.500002    40.500002    40.500002    9.2828288    -3.358138 
      57       0.0057    293.31883   -13280.667     2650.018    2650.7736    2649.2809    2649.9996    12.531261    1.0073075   -11.206304    40.500002    40.500002    40.500002    9.4462522   -3.3580718 
      58       0.0058     292.7977   -13280.667    2653.0968    2653.9041    2652.5596    2652.8266    12.527064   0.99151862   -11.174391    40.500002    40.500002    40.500002     9.609496   -3.3580044 
      59       0.0059    292.26825   -13280.667    2656.2327    2657.0888    2655.9032     2655.706    12.521462   0.97638987   -11.141592    40.500002    40.500002    40.500002    9.7725591    -3.357936 
      60        0.006    295.86527    -13278.53    2693.7914     2694.721    2693.5904    2693.0627    12.668105    0.9996211   -11.257516    40.500002    40.500002    40.500002     9.935441   -3.3578665 
      61       0.0061    295.31543    -13278.53    2697.0672    2698.0401      2697.09    2696.0716    12.659028   0.98615833   -11.223067    40.500002    40.500002    40.500002    10.099291   -3.3577955 
      62       0.0062    294.75728    -13278.53    2700.4046    2701.4177    2700.6581    2699.1379    12.648179   0.97286964   -11.187518    40.500002    40.500002    40.500002    10.262962   -3.3577233 
      63       0.0063    294.19085    -13278.53    2703.8056     2704.857    2704.2964    2702.2633    12.635305   0.95998751   -11.151076    40.500002    40.500002    40.500002    10.426453   -3.3576501 
      64       0.0064     293.6162    -13278.53    2707.2729    2708.3603    2708.0075    2705.4509    12.619649   0.94745418   -11.113669    40.500002    40.500002    40.500002    10.589768   -3.3575759 
      65       0.0065    293.03336    -13278.53    2710.8102    2711.9309    2711.7952    2708.7045     12.60128    0.9349046     -11.0753    40.500002    40.500002    40.500002    10.752908   -3.3575006 
      66       0.0066    292.44237    -13278.53      2714.42    2715.5712    2715.6622    2712.0265    12.580619   0.92319023   -11.036262    40.500002    40.500002    40.500002    10.915876   -3.3574242 
      67       0.0067    291.84329    -13278.53    2718.1049    2719.2835    2719.6106    2715.4206    12.557552   0.91221312   -10.996025    40.500002    40.500002    40.500002    11.078672   -3.3573468 
      68       0.0068    291.23616    -13278.53    2721.8675    2723.0708    2723.6418      2718.89     12.53186   0.90162235   -10.954357    40.500002    40.500002    40.500002    11.241297   -3.3572683 
      69       0.0069    290.62102    -13278.53    2725.7093    2726.9352    2727.7573    2722.4355    12.503133   0.89215613   -10.911504    40.500002    40.500002    40.500002    11.403752   -3.3571888 
      70        0.007    294.99896   -13275.945    2771.1975    2772.4972    2773.4128    2767.6825     12.65123   0.93824967   -11.042335    40.500002    40.500002    40.500002    11.566036   -3.3571083 
      71       0.0071    294.36248   -13275.945    2775.2387    2776.5562    2777.7392    2771.4207    12.617785   0.93248171   -10.997011    40.500002    40.500002    40.500002    11.729544   -3.3570261 
      72       0.0072    293.71797   -13275.945    2779.3665    2780.6985    2782.1574    2775.2435    12.581987    0.9287016   -10.951397    40.500002    40.500002    40.500002    11.892884   -3.3569428 
      73       0.0073     293.0655   -13275.945    2783.5832    2784.9258    2786.6696     2779.154    12.544387   0.92666137   -10.906318    40.500002    40.500002    40.500002    12.056056   -3.3568584 
      74       0.0074    292.40509   -13275.945    2787.8913    2789.2401    2791.2782    2783.1556    12.504235   0.92626606   -10.861653    40.500002    40.500002    40.500002     12.21906   -3.3567731 
      75       0.0075    291.73681   -13275.945    2792.2928    2793.6432    2795.9849    2787.2502    12.461701   0.92666304   -10.817278    40.500002    40.500002    40.500002    12.381897   -3.3566867 
      76       0.0076     291.0607   -13275.945    2796.7908    2798.1375    2800.7934    2791.4414    12.417297   0.92764514   -10.772916    40.500002    40.500002    40.500002    12.544565   -3.3565994 
      77       0.0077     290.3768   -13275.945    2801.3875    2802.7243    2805.7067    2795.7316    12.371724   0.92933088   -10.729089    40.500002    40.500002    40.500002    12.707067    -3.356511 
      78       0.0078    289.68518   -13275.945    2806.0847    2807.4055    2810.7264    2800.1222    12.325348     0.931826   -10.685816    40.500002    40.500002    40.500002    12.869401   -3.3564216 
      79       0.0079    288.98587   -13275.945    2810.8856    2812.1843    2815.8555    2804.6169    12.278661   0.93468479   -10.643356    40.500002    40.500002    40.500002    13.031567   -3.3563312 
      80        0.008    294.13947   -13272.916     2864.501    2865.8613    2869.6663    2857.9754    12.432261    1.0133598   -10.799337    40.500002    40.500002    40.500002    13.193565   -3.3562399 
      81       0.0081    293.41767   -13272.916    2869.5671    2870.8925    2875.0763    2862.7325    12.384984      1.01738   -10.758804    40.500002    40.500002    40.500002    13.357034   -3.3561466 
      82       0.0082    292.68817   -13272.916    2874.7463    2876.0309    2880.6052    2867.6027    12.337936    1.0219572   -10.719311    40.500002    40.500002    40.500002    13.520339   -3.3560523 
      83       0.0083    291.95102   -13272.916    2880.0407    2881.2792    2886.2553    2872.5876     12.29172    1.0272102   -10.681017    40.500002    40.500002    40.500002     13.68348   -3.3559571 
      84       0.0084    291.20626   -13272.916    2885.4526      2886.64    2892.0294    2877.6884    12.246203    1.0339221    -10.64436    40.500002    40.500002    40.500002    13.846455   -3.3558608 
      85       0.0085    290.45396   -13272.916    2890.9844    2892.1159    2897.9294     2882.908    12.201802    1.0416888   -10.610221    40.500002    40.500002    40.500002    14.009264   -3.3557636 
      86       0.0086    289.69416   -13272.916    2896.6384    2897.7094    2903.9571    2888.2487    12.158796    1.0503892   -10.578241    40.500002    40.500002    40.500002    14.171908   -3.3556654 
      87       0.0087    288.92693   -13272.916    2902.4168    2903.4226    2910.1155    2893.7124    12.117835    1.0604488   -10.548813    40.500002    40.500002    40.500002    14.334385   -3.3555663 
      88       0.0088    288.15231   -13272.916    2908.3211    2909.2571    2916.4057    2899.3006    12.078246    1.0717461   -10.521693    40.500002    40.500002    40.500002    14.496694   -3.3554662 
      89       0.0089    287.37035   -13272.916    2914.3537     2915.215    2922.8304    2905.0159     12.03997    1.0839907   -10.496374    40.500002    40.500002    40.500002    14.658833   -3.3553651 
      90        0.009    293.29057   -13269.447    2976.2811    2977.2016    2984.9849    2966.6568    12.220804    1.1990318   -10.688857    40.500002    40.500002    40.500002    14.820802   -3.3552631 
      91       0.0091    292.48479   -13269.447    2982.6507    2983.4856     2991.763    2972.7035    12.184805    1.2130868   -10.666421    40.500002    40.500002    40.500002    14.984486    -3.355159 
      92       0.0092    291.67166   -13269.447    2989.1581    2989.9024    2998.6849     2978.887    12.149802    1.2284712   -10.644962    40.500002    40.500002    40.500002    15.148001   -3.3550539 
      93       0.0093    290.85122   -13269.447    2995.8055    2996.4546    3005.7523    2985.2096    12.115538    1.2453511   -10.624779    40.500002    40.500002    40.500002    15.311347   -3.3549479 
      94       0.0094    290.02353   -13269.447    3002.5948    3003.1443     3012.967    2991.6732    12.082398    1.2635263   -10.606231    40.500002    40.500002    40.500002    15.474521   -3.3548409 
      95       0.0095    289.18866   -13269.447    3009.5283    3009.9738    3020.3309    2998.2803    12.050738    1.2829049   -10.589641    40.500002    40.500002    40.500002    15.637523   -3.3547331 
      96       0.0096    288.34665   -13269.447    3016.6083    3016.9457     3027.846    3005.0333    12.020008    1.3034977   -10.574632    40.500002    40.500002    40.500002    15.800351   -3.3546242 
      97       0.0097    287.49758   -13269.447    3023.8359    3024.0606    3035.5139    3011.9333    11.990786    1.3247445   -10.561337    40.500002    40.500002    40.500002    15.963002   -3.3545145 
      98       0.0098     286.6415   -13269.447    3031.2119    3031.3189    3043.3351    3018.9817    11.962805    1.3465373   -10.549935    40.500002    40.500002    40.500002    16.125474   -3.3544039 
      99       0.0099    285.77847   -13269.447    3038.7377    3038.7225    3051.3112    3026.1794     11.93597    1.3692086   -10.540201    40.500002    40.500002    40.500002    16.287763   -3.3542924 
     100         0.01    292.45428   -13265.547    3109.1295    3109.1904    3121.9506    3096.2476    12.139465    1.5284269   -10.762692    40.500002    40.500002    40.500002    16.449868   -3.3541799 
     101       0.0101    291.56594   -13265.547    3117.0631    3116.9915    3130.3505    3103.8473    12.114446     1.552977   -10.756123    40.500002    40.500002    40.500002     16.61392   -3.3540651 
     102       0.0102    290.67061   -13265.547    3125.1542    3124.9456    3138.9135    3111.6035    12.090422    1.5782497   -10.751192    40.500002    40.500002    40.500002    16.777787   -3.3539494 
     103       0.0103    289.76836   -13265.547    3133.4041    3133.0538    3147.6411    3119.5174    12.067297    1.6039761   -10.747885    40.500002    40.500002    40.500002    16.941466   -3.3538328 
     104       0.0104    288.85925   -13265.547    3141.8141    3141.3181    3156.5339    3127.5903    12.044801    1.6303871   -10.745888    40.500002    40.500002    40.500002    17.104955   -3.3537154 
     105       0.0105    287.94334   -13265.547    3150.3852    3149.7393    3165.5934    3135.8229    12.023273    1.6581471   -10.745024    40.500002    40.500002    40.500002     17.26825    -3.353597 
     106       0.0106    287.02071   -13265.547    3159.1174    3158.3173    3174.8196    3144.2155    12.002773    1.6869495   -10.745631    40.500002    40.500002    40.500002    17.431347   -3.3534778 
     107       0.0107    286.09142   -13265.547    3168.0116    3167.0528    3184.2133    3152.7687     11.98242    1.7167131   -10.748075    40.500002    40.500002    40.500002    17.594244   -3.3533577 
     108       0.0108    285.15553   -13265.547    3177.0676    3175.9458    3193.7743    3161.4828     11.96242    1.7483379   -10.752934    40.500002    40.500002    40.500002    17.756935   -3.3532367 
     109       0.0109    284.21312   -13265.547    3186.2861    3184.9972    3203.5035    3170.3577    11.943313    1.7816029   -10.760102    40.500002    40.500002    40.500002    17.919418   -3.3531149 
     110        0.011    291.63212   -13261.221    3265.2154    3264.0365    3282.6993    3248.9103    12.160364    1.9925636   -11.009486    40.500002    40.500002    40.500002    18.081688   -3.3529923 
     111       0.0111    290.66278   -13261.221    3274.9007    3273.5428    3292.9148    3258.2444    12.141629    2.0290276    -11.02101    40.500002    40.500002    40.500002    18.246121   -3.3528671 
     112       0.0112    289.68686   -13261.221    3284.7537     3283.212    3303.3043    3267.7447    12.123598    2.0674623   -11.034971    40.500002    40.500002    40.500002    18.410341   -3.3527409 
     113       0.0113    288.70444   -13261.221    3294.7742    3293.0442    3313.8676    3277.4107    12.106037    2.1079844   -11.051065    40.500002    40.500002    40.500002     18.57434    -3.352614 
     114       0.0114    287.71559   -13261.221     3304.962    3303.0389    3324.6044    3287.2426    12.088702    2.1499649   -11.069819    40.500002    40.500002    40.500002    18.738116   -3.3524862 
     115       0.0115    286.72039   -13261.221    3315.3172    3313.1961    3335.5146    3297.2409     12.07202    2.1935546   -11.091219    40.500002    40.500002    40.500002    18.901663   -3.3523576 
     116       0.0116     285.7189   -13261.221    3325.8392    3323.5156    3346.5972    3307.4047    12.055786    2.2388412   -11.114843    40.500002    40.500002    40.500002    19.064976   -3.3522282 
     117       0.0117    284.71121   -13261.221    3336.5271    3333.9971    3357.8511     3317.733    12.039291    2.2856434   -11.140852    40.500002    40.500002    40.500002    19.228051   -3.3520979 
     118       0.0118    283.69737   -13261.221    3347.3808      3344.64    3369.2763    3328.2261    12.022701    2.3344068   -11.169556    40.500002    40.500002    40.500002    19.390882   -3.3519669 
     119       0.0119    282.67748   -13261.221    3358.4004    3355.4443    3380.8729    3338.8841    12.006052    2.3849115    -11.20086    40.500002    40.500002    40.500002    19.553465   -3.3518351 
     120        0.012    290.82581   -13256.479    3445.8352    3443.0379    3468.5918    3425.8758    12.224903     2.662436   -11.479846    40.500002    40.500002    40.500002    19.715796   -3.3517026 
     121       0.0121    289.77726   -13256.479    3457.3705    3454.3463    3480.7242    3437.0411    12.206489    2.7172011   -11.517625    40.500002    40.500002    40.500002    19.880493   -3.3515671 
     122       0.0122    288.72262   -13256.479    3469.0767    3465.8217    3493.0325     3448.376    12.187416    2.7738774   -11.558513    40.500002    40.500002    40.500002    20.044936   -3.3514308 
     123       0.0123    287.66194   -13256.479     3480.954    3477.4642    3505.5169    3459.8809    12.167616    2.8321667   -11.602474    40.500002    40.500002    40.500002    20.209119   -3.3512937 
     124       0.0124    286.59531   -13256.479    3493.0017    3489.2729    3518.1771    3471.5551     12.14688    2.8924242   -11.649199    40.500002    40.500002    40.500002    20.373037   -3.3511559 
     125       0.0125    285.52281   -13256.479    3505.2194     3501.248    3531.0123     3483.398     12.12526    2.9543561   -11.698731    40.500002    40.500002    40.500002    20.536685   -3.3510173 
     126       0.0126    284.44452   -13256.479    3517.6067    3513.3892    3544.0221    3495.4088    12.102266    3.0178419   -11.750978    40.500002    40.500002    40.500002    20.700058   -3.3508779 
     127       0.0127    283.36053   -13256.479    3530.1624    3525.6954    3557.2056    3507.5863    12.078319    3.0833766   -11.805818    40.500002    40.500002    40.500002     20.86315   -3.3507378 
     128       0.0128     282.2709   -13256.479    3542.8859    3538.1656    3570.5624    3519.9297    12.053518    3.1507777   -11.863139    40.500002    40.500002    40.500002    21.025956    -3.350597 
     129       0.0129    281.17574   -13256.479     3555.777    3550.7996    3584.0918    3532.4394    12.027289    3.2198204   -11.923434    40.500002    40.500002    40.500002     21.18847   -3.3504555 
     130        0.013    290.03756   -13251.329    3651.6359    3646.8913    3680.2412    3627.7753    12.229782    3.5742845   -12.230962    40.500002    40.500002    40.500002    21.350687   -3.3503133 
     131       0.0131    288.91195   -13251.329    3665.0947    3660.0804    3694.3606    3640.8429    12.200492    3.6481262   -12.298105    40.500002    40.500002    40.500002    21.515462   -3.3501678 
     132       0.0132    287.78076   -13251.329    3678.7249     3673.437     3708.657    3654.0806    12.169998    3.7234227   -12.368411    40.500002    40.500002    40.500002    21.679937   -3.3500216 
     133       0.0133    286.64405   -13251.329    3692.5262    3686.9605    3723.1302    3667.4878    12.138067    3.8003937   -12.442114    40.500002    40.500002    40.500002    21.844107   -3.3498747 
     134       0.0134    285.50193   -13251.329    3706.4973      3700.65    3737.7785    3681.0634    12.104576    3.8796201   -12.518766    40.500002    40.500002    40.500002    22.007965   -3.3497271 
     135       0.0135    284.35448   -13251.329    3720.6375     3714.505    3752.6008    3694.8067    12.069767    3.9604378    -12.59876    40.500002    40.500002    40.500002    22.171506   -3.3495789 
     136       0.0136    283.20178   -13251.329    3734.9456    3728.5239    3767.5964    3708.7165    12.033699    4.0427642   -12.682156    40.500002    40.500002    40.500002    22.334723   -3.3494299 
     137       0.0137    282.04392   -13251.329    3749.4202    3742.7053    3782.7638    3722.7913    11.996477    4.1261005   -12.768817    40.500002    40.500002    40.500002    22.497611   -3.3492803 
     138       0.0138      280.881   -13251.329    3764.0601     3757.048    3798.1019    3737.0303    11.958115    4.2104399   -12.858743    40.500002    40.500002    40.500002    22.660162     -3.34913 
     139       0.0139     279.7131   -13251.329    3778.8638    3771.5504    3813.6095    3751.4313    11.918548    4.2958149    -12.95237    40.500002    40.500002    40.500002    22.822372   -3.3489791 
     140        0.014    289.27016   -13245.783    3883.0095    3876.0199    3918.0492    3854.9593    12.094943    4.7343726   -13.286743    40.500002    40.500002    40.500002    22.984234   -3.3488275 
     141       0.0141       288.07   -13245.783    3898.4281    3891.1223    3934.1969    3869.9653    12.051985    4.8232215   -13.388904    40.500002    40.500002    40.500002    23.148831   -3.3486724 
     142       0.0142    286.86482   -13245.783    3914.0136    3906.3871    3950.5172    3885.1366     12.00808    4.9130716   -13.494736    40.500002    40.500002    40.500002    23.313076   -3.3485167 
     143       0.0143    285.65471   -13245.783    3929.7648    3921.8126    3967.0093    3900.4724    11.963313    5.0043082   -13.604238    40.500002    40.500002    40.500002    23.476963   -3.3483603 
     144       0.0144    284.43976   -13245.783    3945.6808    3937.3977    3983.6723    3915.9725    11.918122    5.0964875   -13.717744    40.500002    40.500002    40.500002    23.640486   -3.3482033 
     145       0.0145    283.22007   -13245.783    3961.7595    3953.1408    4000.5036    3931.6342    11.872404    5.1896621   -13.835191    40.500002    40.500002    40.500002    23.803638   -3.3480457 
     146       0.0146    281.99573   -13245.783    3977.9993    3969.0399    4017.5017    3947.4563    11.826383    5.2841971   -13.956682    40.500002    40.500002    40.500002    23.966413   -3.3478874 
     147       0.0147    280.76685   -13245.783     3994.399     3985.094    4034.6653    3963.4377    11.780318    5.3799092   -14.081611    40.500002    40.500002    40.500002    24.128803   -3.3477286 
     148       0.0148    279.53351   -13245.783    4010.9565    4001.3013     4051.992    3979.5763    11.734144     5.476902   -14.210237    40.500002    40.500002    40.500002    24.290803   -3.3475692 
     149       0.0149    278.29582   -13245.783      4027.67    4017.6599    4069.4802      3995.87    11.688173    5.5752083   -14.342822    40.500002    40.500002    40.500002    24.452404   -3.3474093 
     150        0.015    288.52694   -13239.852    4139.8944    4130.3117    4181.9975    4107.3741    11.840014    6.1067658   -14.703246    40.500002    40.500002    40.500002    24.613602   -3.3472488 
     151       0.0151    287.25516   -13239.852    4157.2672    4147.3132    4200.1712    4124.3173    11.793465    6.2097894    -14.84526    40.500002    40.500002    40.500002    24.777692   -3.3470845 
     152       0.0152    285.97899   -13239.852    4174.8002    4164.4701    4218.5105    4141.4199    11.747012    6.3143391   -14.990417    40.500002    40.500002    40.500002    24.941376   -3.3469195 
     153       0.0153    284.69851   -13239.852    4192.4917    4181.7809    4237.0141    4158.6802    11.700571    6.4202264   -15.138706    40.500002    40.500002    40.500002    25.104645   -3.3467541 
     154       0.0154    283.41384   -13239.852    4210.3402    4199.2439    4255.6799    4176.0969    11.654569    6.5270581   -15.290153    40.500002    40.500002    40.500002    25.267493    -3.346588 
     155       0.0155    282.12507   -13239.852    4228.3432    4216.8567    4274.5058    4193.6672    11.608797     6.634709   -15.444701    40.500002    40.500002    40.500002    25.429912   -3.3464215 
     156       0.0156    280.83231   -13239.852     4246.499    4234.6181    4293.4899    4211.3891    11.563152    6.7435102   -15.602308    40.500002    40.500002    40.500002    25.591896   -3.3462544 
     157       0.0157    279.53566   -13239.852    4264.8059    4252.5261    4312.6303    4229.2612    11.517324    6.8538309   -15.762767    40.500002    40.500002    40.500002    25.753437   -3.3460869 
     158       0.0158    278.23523   -13239.852    4283.2618    4270.5784    4331.9254    4247.2816    11.471452      6.96508   -15.926489    40.500002    40.500002    40.500002    25.914529   -3.3459188 
     159       0.0159    276.93112   -13239.852    4301.8645    4288.7731     4351.373    4265.4475    11.425657    7.0773848   -16.093113    40.500002    40.500002    40.500002    26.075164   -3.3457503 
     160        0.016    287.81172   -13233.552    4421.9125     4409.375    4471.7047    4384.6579    11.550164    7.7142723   -16.467832    40.500002    40.500002    40.500002    26.235335   -3.3455813 
     161       0.0161    286.47174   -13233.552    4441.2189    4428.2556    4491.8853    4403.5159    11.503045    7.8315103   -16.644801    40.500002    40.500002    40.500002    26.398539   -3.3454081 
     162       0.0162    285.12805   -13233.552    4460.6757    4447.2817    4512.2219    4422.5235     11.45623    7.9496818   -16.824629    40.500002    40.500002    40.500002    26.561275   -3.3452345 
     163       0.0163    283.78074   -13233.552    4480.2805    4466.4511    4532.7121    4441.6783     11.40984    8.0688736   -17.007561    40.500002    40.500002    40.500002    26.723538   -3.3450604 
     164       0.0164    282.42992   -13233.552    4500.0311    4485.7615    4553.3535    4460.9783    11.364107    8.1888724   -17.193736    40.500002    40.500002    40.500002    26.885318   -3.3448858 
     165       0.0165    281.07571   -13233.552    4519.9254    4505.2109    4574.1439    4480.4213    11.318679    8.3100462   -17.383317    40.500002    40.500002    40.500002    27.046609   -3.3447108 
     166       0.0166    279.71822   -13233.552     4539.961    4524.7972    4595.0813    4500.0046    11.273608    8.4322048   -17.576013    40.500002    40.500002    40.500002    27.207403   -3.3445354 
     167       0.0167    278.35755   -13233.552    4560.1358    4544.5181    4616.1629    4519.7264    11.229397    8.5553161   -17.772147    40.500002    40.500002    40.500002    27.367694   -3.3443596 
     168       0.0168    276.99382   -13233.552    4580.4473     4564.371    4637.3862    4539.5845    11.185554    8.6795165    -17.97147    40.500002    40.500002    40.500002    27.527474   -3.3441833 
     169       0.0169    275.62714   -13233.552     4600.893    4584.3534    4658.7489    4559.5768     11.14257    8.8042092   -18.174118    40.500002    40.500002    40.500002    27.686735   -3.3440067 
     170        0.017    287.12881   -13226.899    4728.4473    4712.6076    4786.5697    4686.1645    11.236077    9.5569689   -18.558425    40.500002    40.500002    40.500002    27.845471   -3.3438297 
     171       0.0171    285.72458   -13226.899    4749.6384    4733.3153    4808.7091    4706.8909    11.193514    9.6861699   -18.772504    40.500002    40.500002    40.500002    28.007354   -3.3436483 
     172       0.0172    284.31735   -13226.899    4770.9667    4754.1554    4830.9908    4727.7538    11.151667    9.8161095   -18.990169    40.500002    40.500002    40.500002    28.168708   -3.3434664 
     173       0.0173    282.90725   -13226.899    4792.4294    4775.1249    4853.4124    4748.7509    11.110761    9.9468692   -19.211425    40.500002    40.500002    40.500002    28.329525   -3.3432842 
     174       0.0174     281.4944   -13226.899    4814.0243    4796.2217    4875.9713    4769.8798     11.07064     10.07844   -19.436579    40.500002    40.500002    40.500002    28.489797   -3.3431016 
     175       0.0175     280.0789   -13226.899    4835.7485     4817.443    4898.6649    4791.1375    11.031142    10.210984   -19.665579    40.500002    40.500002    40.500002    28.649517   -3.3429187 
     176       0.0176    278.66088   -13226.899    4857.5988    4838.7859    4921.4897    4812.5207    10.992276    10.344694   -19.898358    40.500002    40.500002    40.500002    28.808677   -3.3427354 
     177       0.0177    277.24045   -13226.899    4879.5728    4860.2476    4944.4436    4834.0273    10.954612    10.479644   -20.134957    40.500002    40.500002    40.500002    28.967268   -3.3425519 
     178       0.0178    275.81773   -13226.899    4901.6677    4881.8254    4967.5233    4855.6544    10.917839    10.615426   -20.375057    40.500002    40.500002    40.500002    29.125285    -3.342368 
     179       0.0179    274.39284   -13226.899     4923.881    4903.5172    4990.7261    4877.3997    10.881722    10.751912   -20.619119    40.500002    40.500002    40.500002    29.282718   -3.3421839 
     180        0.018    286.48295   -13219.912    5058.5548    5039.0561    5125.6411    5010.9672    10.939649    11.633583   -21.011882    40.500002    40.500002    40.500002    29.439561   -3.3419995 
     181       0.0181    285.01895   -13219.912    5081.5499    5061.5076    5149.6594    5033.4828    10.903563    11.774762   -21.270477    40.500002    40.500002    40.500002     29.59964   -3.3418103 
     182       0.0182    283.55275   -13219.912    5104.6659    5084.0753    5173.8034    5056.1191    10.868427    11.917122   -21.533097    40.500002    40.500002    40.500002    29.759125   -3.3416208 
     183       0.0183    282.08446   -13219.912    5127.9001    5106.7565    5198.0704    5078.8734    10.834125    12.060266   -21.799966    40.500002    40.500002    40.500002    29.918008   -3.3414311 
     184       0.0184    280.61422   -13219.912    5151.2497    5129.5485    5222.4577    5101.7429    10.800702    12.203626   -22.071193    40.500002    40.500002    40.500002    30.076281   -3.3412411 
     185       0.0185    279.14214   -13219.912    5174.7113    5152.4478    5246.9616    5124.7245    10.767973    12.347817   -22.346172    40.500002    40.500002    40.500002    30.233937   -3.3410508 
     186       0.0186    277.66834   -13219.912    5198.2825    5175.4516    5271.5797     5147.816    10.735799    12.492852   -22.625329    40.500002    40.500002    40.500002    30.390967   -3.3408604 
     187       0.0187    276.19296   -13219.912    5221.9607    5198.5575    5296.3096     5171.015    10.703821    12.638481   -22.908486    40.500002    40.500002    40.500002    30.547364   -3.3406697 
     188       0.0188    274.71611   -13219.912    5245.7431    5221.7625    5321.1486    5194.3181    10.672331    12.784483   -23.195329    40.500002    40.500002    40.500002     30.70312   -3.3404789 
     189       0.0189    273.23791   -13219.912    5269.6265    5245.0638    5346.0933    5217.7224    10.641276     12.93081    -23.48629    40.500002    40.500002    40.500002    30.858228   -3.3402878 
     190        0.019    285.87925   -13212.612      5410.97    5387.4558    5487.6422    5357.8119     10.65438    13.952321    -23.88432    40.500002    40.500002    40.500002    31.012679   -3.3400967 
     191       0.0191    284.36058   -13212.612    5435.6688    5411.5465    5513.4395    5382.0204    10.622849    14.103481   -24.190393    40.500002    40.500002    40.500002    31.170426   -3.3399004 
     192       0.0192    282.84054   -13212.612    5460.4714    5435.7354    5539.3459    5406.3328    10.591682    14.254722    -24.50034    40.500002    40.500002    40.500002    31.327512    -3.339704 
     193       0.0193    281.31926   -13212.612    5485.3744    5460.0195    5565.3578    5430.7458    10.560651    14.406045   -24.814072    40.500002    40.500002    40.500002     31.48393   -3.3395074 
     194       0.0194    279.79687   -13212.612    5510.3751    5484.3958    5591.4724     5455.257    10.529831    14.557679   -25.131385    40.500002    40.500002    40.500002    31.639672   -3.3393106 
     195       0.0195    278.27349   -13212.612    5535.4704    5508.8612    5617.6865    5479.8635    10.499651    14.709375   -25.452346    40.500002    40.500002    40.500002    31.794731   -3.3391138 
     196       0.0196    276.74926   -13212.612    5560.6573     5533.413     5643.997    5504.5619    10.469855    14.861314   -25.776908    40.500002    40.500002    40.500002    31.949097   -3.3389168 
     197       0.0197     275.2243   -13212.612    5585.9329    5558.0479    5670.4011    5529.3496    10.440003    15.013615   -26.105449    40.500002    40.500002    40.500002    32.102764   -3.3387197 
     198       0.0198    273.69874   -13212.612    5611.2941     5582.763    5696.8957    5554.2236    10.410231    15.165899   -26.437482    40.500002    40.500002    40.500002    32.255723   -3.3385226 
     199       0.0199    272.17271   -13212.612    5636.7381    5607.5551     5723.478    5579.1811    10.380523    15.318399    -26.77284    40.500002    40.500002    40.500002    32.407968   -3.3383254 
     200         0.02    285.32317   -13205.026    5784.2453    5756.3044    5871.1508    5725.2806    10.338716    16.489323   -27.166414    40.500002    40.500002    40.500002    32.559489   -3.3381281 
     201       0.0201    283.75554   -13205.026    5810.5348    5781.9136    5898.6185    5751.0721     10.30912    16.646098   -27.517848    40.500002    40.500002    40.500002    32.714329   -3.3379256 
     202       0.0202    282.18743   -13205.026     5836.909    5807.6019     5926.176    5776.9491    10.279836    16.803041   -27.873056    40.500002    40.500002    40.500002    32.868443   -3.3377229 
     203       0.0203    280.61896   -13205.026    5863.3651    5833.3663    5953.8202    5802.9089    10.250434      16.9597   -28.231993    40.500002    40.500002    40.500002    33.021821   -3.3375202 
     204       0.0204    279.05027   -13205.026    5889.8999    5859.2039    5981.5477     5828.948    10.220576    17.116163   -28.594475    40.500002    40.500002    40.500002    33.174457   -3.3373175 
     205       0.0205    277.48148   -13205.026      5916.51    5885.1113    6009.3553    5855.0634     10.19084    17.272334   -28.960795    40.500002    40.500002    40.500002    33.326341   -3.3371148 
     206       0.0206    275.91275   -13205.026     5943.193    5911.0861    6037.2405    5881.2523    10.161343    17.427904   -29.330996    40.500002    40.500002    40.500002    33.477467    -3.336912 
     207       0.0207    274.34419   -13205.026    5969.9451    5937.1245    6065.1998     5907.511    10.131866    17.583002   -29.704725    40.500002    40.500002    40.500002    33.627828   -3.3367093 
     208       0.0208    272.77594   -13205.026    5996.7632    5963.2233    6093.2299    5933.8363    10.102057    17.737445   -30.082124    40.500002    40.500002    40.500002    33.777414   -3.3365067 
     209       0.0209    271.20813   -13205.026    6023.6444    5989.3798    6121.3278    5960.2254    10.071982    17.891069    -30.46311    40.500002    40.500002    40.500002    33.926218   -3.3363041 
     210        0.021    284.82045   -13197.179    6176.7471    6143.9316    6274.5497      6111.76     9.966166    19.218403   -30.846518    40.500002    40.500002    40.500002    34.074232   -3.3361015 
     211       0.0211    283.21023   -13197.179    6204.4987    6170.9271    6303.5621    6139.0069    9.9347961    19.374719   -31.245757    40.500002    40.500002    40.500002    34.225554   -3.3358935 
     212       0.0212    281.60044   -13197.179    6232.3147    6197.9814    6332.6438    6166.3187    9.9033241     19.53019   -31.648935    40.500002    40.500002    40.500002    34.376082   -3.3356854 
     213       0.0213    279.99122   -13197.179    6260.1917    6225.0915    6361.7915    6193.6921    9.8715961    19.684777   -32.055778    40.500002    40.500002    40.500002    34.525808   -3.3354775 
     214       0.0214     278.3827   -13197.179    6288.1267    6252.2542    6391.0023    6221.1237    9.8392836      19.8383   -32.466288    40.500002    40.500002    40.500002    34.674726   -3.3352696 
     215       0.0215    276.77503   -13197.179    6316.1166     6279.466    6420.2726    6248.6111    9.8067657    19.990666   -32.880543    40.500002    40.500002    40.500002    34.822826   -3.3350618 
     216       0.0216    275.16835   -13197.179    6344.1581    6306.7241    6449.5994    6276.1509     9.774028    20.141766   -33.298464    40.500002    40.500002    40.500002    34.970102   -3.3348542 
     217       0.0217    273.56277   -13197.179    6372.2481    6334.0256    6478.9792    6303.7396     9.740787    20.291921   -33.720128    40.500002    40.500002    40.500002    35.116546   -3.3346467 
     218       0.0218    271.95846   -13197.179    6400.3829    6361.3666    6508.4081     6331.374    9.7069374    20.440799   -34.144952    40.500002    40.500002    40.500002    35.262149   -3.3344394 
     219       0.0219    270.35553   -13197.179    6428.5596    6388.7446    6537.8832    6359.0511    9.6726216    20.588307   -34.572949    40.500002    40.500002    40.500002    35.406905   -3.3342323 
     220        0.022    284.37706   -13189.104    6586.6225    6548.4743    6696.0135    6515.3796    9.4934759    22.076945   -34.941073    40.500002    40.500002    40.500002    35.550806   -3.3340253 
     221       0.0221    282.73125   -13189.104    6615.6886    6576.7081    6726.4238    6543.9339    9.4573341    22.225837   -35.388674    40.500002    40.500002    40.500002     35.69796   -3.3338126 
     222       0.0222    281.08683   -13189.104    6644.7985    6604.9802    6756.8822    6572.5331    9.4205832    22.373351    -35.83938    40.500002    40.500002    40.500002    35.844256   -3.3336001 
     223       0.0223    279.44394   -13189.104    6673.9491     6633.288    6787.3858    6601.1735    9.3836012    22.519161   -36.294107    40.500002    40.500002    40.500002    35.989685   -3.3333878 
     224       0.0224    277.80271   -13189.104    6703.1367    6661.6275    6817.9305    6629.8523    9.3463985     22.66373   -36.752583    40.500002    40.500002    40.500002    36.134241   -3.3331757 
     225       0.0225     276.1633   -13189.104    6732.3577    6689.9952    6848.5122    6658.5657    9.3087334    22.807498   -37.214499    40.500002    40.500002    40.500002    36.277914   -3.3329639 
     226       0.0226    274.52583   -13189.103    6761.6086    6718.3878    6879.1279    6687.3101    9.2710433    22.950098   -37.680018    40.500002    40.500002    40.500002    36.420699   -3.3327523 
     227       0.0227    272.89044   -13189.103    6790.8864    6746.8024    6909.7743    6716.0825    9.2333432    23.091455   -38.149108    40.500002    40.500002    40.500002    36.562587   -3.3325409 
     228       0.0228    271.25728   -13189.103     6820.188    6775.2359    6940.4481    6744.8799    9.1956162    23.231872   -38.621517    40.500002    40.500002    40.500002    36.703571   -3.3323299 
     229       0.0229    269.62647   -13189.103    6849.5095    6803.6845    6971.1454    6773.6987    9.1577374    23.371036   -39.097627    40.500002    40.500002    40.500002    36.843644   -3.3321191 
     230        0.023    283.99909   -13180.832    7011.8365    6967.9034    7133.4777    6934.1285    8.9019525    25.028609   -39.444959    40.500002    40.500002    40.500002    36.982798   -3.3319087 
     231       0.0231    282.32535   -13180.832    7042.0576    6997.2162    7165.1222    6963.8345    8.8630008    25.168573   -39.942202    40.500002    40.500002    40.500002    37.125111   -3.3316924 
     232       0.0232    280.65398   -13180.832    7072.3005    7026.5455    7196.7923    6993.5635    8.8238951    25.307212   -40.442515    40.500002    40.500002    40.500002      37.2665   -3.3314764 
     233       0.0233    278.98513   -13180.832    7102.5618    7055.8882    7228.4845    7023.3126    8.7846344    25.444148   -40.945983    40.500002    40.500002    40.500002     37.40696   -3.3312607 
     234       0.0234    277.31893   -13180.832     7132.838    7085.2405    7260.1946    7053.0788    8.7453424    25.579353   -41.452505    40.500002    40.500002    40.500002     37.54648   -3.3310454 
     235       0.0235    275.65552   -13180.832    7163.1257    7114.5992    7291.9195    7082.8583    8.7056702    25.712739   -41.962493    40.500002    40.500002    40.500002    37.685056   -3.3308305 
     236       0.0236    273.99504   -13180.832    7193.4219    7143.9617    7323.6559    7112.6482    8.6658798    25.844291   -42.475854    40.500002    40.500002    40.500002     37.82268   -3.3306159 
     237       0.0237    272.33763   -13180.832    7223.7229    7173.3247    7355.3991    7142.4449    8.6261189    25.973772   -42.992178    40.500002    40.500002    40.500002    37.959344   -3.3304017 
     238       0.0238    270.68344   -13180.832     7254.025    7202.6845    7387.1459    7172.2445    8.5859655     26.10124   -43.511459    40.500002    40.500002    40.500002    38.095041   -3.3301879 
     239       0.0239    269.03259   -13180.832    7284.3251    7232.0379    7418.8934     7202.044    8.5455633    26.226431   -44.034061    40.500002    40.500002    40.500002    38.229765   -3.3299746 
     240        0.024    283.69262   -13172.403    7450.1558    7399.9866    7584.6572    7365.8238    8.2098274    28.055511    -44.35285    40.500002    40.500002    40.500002    38.363508   -3.3297617 
     241       0.0241    281.99925   -13172.403    7481.3576    7430.2046    7617.3547    7396.5135    8.1672825    28.180001   -44.897259    40.500002    40.500002    40.500002    38.500271   -3.3295429 
     242       0.0242    280.30925   -13172.403    7512.5582     7460.417    7650.0536     7427.204     8.124462    28.302196   -45.444679    40.500002    40.500002    40.500002    38.636049   -3.3293245 
     243       0.0243    278.62276   -13172.403    7543.7546    7490.6211     7682.751    7457.8918    8.0807043    28.422023   -45.995169    40.500002    40.500002    40.500002    38.770835   -3.3291065 
     244       0.0244    276.93991   -13172.403    7574.9436     7520.814    7715.4433    7488.5734    8.0359674    28.539357   -46.548862    40.500002    40.500002    40.500002    38.904623   -3.3288891 
     245       0.0245    275.26086   -13172.403    7606.1219    7550.9925    7748.1276    7519.2457    7.9904199    28.653998   -47.105542    40.500002    40.500002    40.500002    39.037405   -3.3286721 
     246       0.0246    273.58574   -13172.403     7637.286    7581.1527    7780.8003     7549.905    7.9439729    28.765821   -47.665005    40.500002    40.500002    40.500002    39.169175   -3.3284556 
     247       0.0247    271.91468   -13172.403    7668.4323    7611.2919    7813.4574    7580.5476    7.8964244    28.875272   -48.227425    40.500002    40.500002    40.500002    39.299924   -3.3282397 
     248       0.0248    270.24783   -13172.403    7699.5577    7641.4067    7846.0959    7611.1704    7.8480347    28.982285   -48.792879    40.500002    40.500002    40.500002    39.429648   -3.3280243 
     249       0.0249    268.58533   -13172.403    7730.6588    7671.4936    7878.7126    7641.7702    7.7986361    29.086784   -49.361583    40.500002    40.500002    40.500002     39.55834   -3.3278094 
     250        0.025    283.46365   -13163.855    7899.1707    7842.3489    8047.0814    7808.0818     7.374313    31.084735    -49.64816    40.500002    40.500002    40.500002    39.685991   -3.3275952 
     251       0.0251    281.75954   -13163.855    7931.1654    7873.2908     8080.643    7839.5625    7.3211345    31.186942   -50.240892    40.500002    40.500002    40.500002    39.816479   -3.3273749 
     252       0.0252     280.0598   -13163.855     7963.137    7904.2058     8114.184    7871.0212    7.2670798    31.286857   -50.836472    40.500002    40.500002    40.500002    39.945925   -3.3271553 
     253       0.0253    278.36456   -13163.855    7995.0818    7935.0903    8147.7008    7902.4543    7.2119691    31.384268   -51.435283    40.500002    40.500002    40.500002    40.074321   -3.3269362 
     254       0.0254    276.67398   -13163.855    8026.9959    7965.9408     8181.189    7933.8578    7.1556293    31.479374   -52.037437    40.500002    40.500002    40.500002     40.20166   -3.3267177 
     255       0.0255    274.98818   -13163.855    8058.8758    7996.7538    8214.6452    7965.2285    7.0980845    31.572177   -52.642875    40.500002    40.500002    40.500002    40.327937   -3.3264999 
     256       0.0256    273.30731   -13163.855    8090.7183    8027.5258    8248.0662     7996.563    7.0394391    31.662339   -53.251455    40.500002    40.500002    40.500002    40.453144   -3.3262827 
     257       0.0257     271.6315   -13163.855    8122.5195    8058.2531    8281.4478    8027.8575    6.9793261    31.750134   -53.863374    40.500002    40.500002    40.500002    40.577276   -3.3260661 
     258       0.0258    269.96089   -13163.855     8154.276    8088.9322    8314.7867    8059.1091    6.9177076      31.8352   -54.478704    40.500002    40.500002    40.500002    40.700326   -3.3258502 
     259       0.0259    268.29562   -13163.855    8185.9846    8119.5595    8348.0797    8090.3145    6.8548493    31.917388    -55.09743    40.500002    40.500002    40.500002    40.822288    -3.325635 
     260        0.026    283.31791   -13155.232    8356.2917    8292.4199    8518.1693    8258.2859    6.3385182    34.084499   -55.352104    40.500002    40.500002    40.500002    40.943156   -3.3254205 
     261       0.0261    281.61247   -13155.232    8388.8737    8323.8807    8552.3881    8290.3525    6.2706256    34.163569   -55.996279    40.500002    40.500002    40.500002    41.066635   -3.3252001 
     262       0.0262    279.91239   -13155.232    8421.4086    8355.2912    8586.5612    8322.3735    6.2014314     34.23962   -56.643801    40.500002    40.500002    40.500002    41.189016   -3.3249804 
     263       0.0263    278.21783   -13155.232     8453.893    8386.6477    8620.6856    8354.3456    6.1306013    34.312795   -57.294344    40.500002    40.500002    40.500002    41.310294   -3.3247614 
     264       0.0264     276.5289   -13155.232    8486.3236    8417.9471    8654.7585    8386.2653     6.058012    34.382994   -57.948014    40.500002    40.500002    40.500002    41.430462   -3.3245432 
     265       0.0265    274.84574   -13155.232    8518.6965    8449.1854    8688.7753     8418.129    5.9838094    34.450248   -58.604692    40.500002    40.500002    40.500002    41.549515   -3.3243257 
     266       0.0266    273.16849   -13155.232    8551.0086    8480.3592    8722.7326    8449.9341     5.908142    34.514226   -59.264331    40.500002    40.500002    40.500002    41.667446   -3.3241089 
     267       0.0267    271.49729   -13155.232    8583.2569    8511.4657    8756.6277    8481.6774    5.8313915    34.574684   -59.927062    40.500002    40.500002    40.500002    41.784249    -3.323893 
     268       0.0268    269.83226   -13155.232    8615.4374    8542.5011    8790.4565    8513.3547    5.7534895     34.63217   -60.592909    40.500002    40.500002    40.500002    41.899919   -3.3236778 
     269       0.0269    268.17353   -13155.232    8647.5466    8573.4618    8824.2156    8544.9625     5.674502    34.686722   -61.261288    40.500002    40.500002    40.500002    42.014451   -3.3234634 
     270        0.027    283.26062   -13146.579    8818.7076    8747.3593    8995.0876     8713.676    5.0661124    37.013269   -61.482504    40.500002    40.500002    40.500002    42.127837   -3.3232499 
     271       0.0271    281.56373   -13146.579    8851.6596    8779.1196    9029.7433    8746.1159     4.981883    37.062831   -62.176843    40.500002    40.500002    40.500002    42.243566   -3.3230306 
     272       0.0272    279.87318   -13146.579    8884.5416    8810.8061    9064.3302    8778.4885    4.8963471    37.109096   -62.873566    40.500002    40.500002    40.500002    42.358148   -3.3228122 
     273       0.0273     278.1891   -13146.579    8917.3504    8842.4159    9098.8448    8810.7905    4.8091577    37.152035   -63.572735    40.500002    40.500002    40.500002    42.471577   -3.3225945 
     274       0.0274    276.51163   -13146.579    8950.0826    8873.9456     9133.284    8843.0183    4.7203489     37.19185   -64.274581    40.500002    40.500002    40.500002    42.583848   -3.3223777 
     275       0.0275     274.8409   -13146.579     8982.735    8905.3922    9167.6444    8875.1685    4.6304911    37.228674   -64.978983    40.500002    40.500002    40.500002    42.694955   -3.3221618 
     276       0.0276    273.17703   -13146.579    9015.3039    8936.7523    9201.9222    8907.2372    4.5393294    37.262458   -65.685819    40.500002    40.500002    40.500002    42.804893   -3.3219468 
     277       0.0277    271.52015   -13146.579    9047.7862    8968.0228    9236.1142    8939.2215    4.4469084     37.29308   -66.394938    40.500002    40.500002    40.500002    42.913657   -3.3217327 
     278       0.0278     269.8704   -13146.579    9080.1791    8999.2009    9270.2178    8971.1187    4.3536384    37.320342   -67.105995    40.500002    40.500002    40.500002    43.021241   -3.3215195 
     279       0.0279    268.22789   -13146.579    9112.4794    9030.2831    9304.2294    9002.9257    4.2592904    37.344177   -67.819075    40.500002    40.500002    40.500002    43.127642   -3.3213073 
     280        0.028    283.29638   -13137.945    9283.5124     9204.199    9474.9075    9171.4308    3.5643736    39.818592   -68.002964    40.500002    40.500002    40.500002    43.232853   -3.3210959 
     281       0.0281    281.61824   -13137.945    9316.6145    9236.0385    9509.7754    9204.0295    3.4651897    39.836003   -68.742473    40.500002    40.500002    40.500002    43.340101   -3.3208791 
     282       0.0282    279.94738   -13137.945    9349.6248    9267.7829    9544.5531    9236.5385    3.3652648    39.849604   -69.483958    40.500002    40.500002    40.500002    43.446158   -3.3206632 
     283       0.0283    278.28394   -13137.945    9382.5401    9299.4287    9579.2368    9268.9546     3.264649    39.859331   -70.227544    40.500002    40.500002    40.500002    43.551018   -3.3204482 
     284       0.0284    276.62803   -13137.945     9415.357    9330.9727    9613.8232     9301.275    3.1634973    39.865509   -70.972823    40.500002    40.500002    40.500002    43.654678   -3.3202342 
     285       0.0285    274.97977   -13137.945     9448.072    9362.4114    9648.3087     9333.496     3.061887    39.868392   -71.719554    40.500002    40.500002    40.500002    43.757131   -3.3200212 
     286       0.0286     273.3393   -13137.945    9480.6822    9393.7417    9682.6904    9365.6144    2.9595485    39.867994   -72.467822    40.500002    40.500002    40.500002    43.858374   -3.3198092 
     287       0.0287    271.70673   -13137.945     9513.184    9424.9602    9716.9651    9397.6268    2.8568025    39.864237   -73.217601    40.500002    40.500002    40.500002    43.958402   -3.3195982 
     288       0.0288    270.08219   -13137.945    9545.5741    9456.0635    9751.1291    9429.5297    2.7534685    39.857102    -73.96848    40.500002    40.500002    40.500002    44.057211   -3.3193883 
     289       0.0289    268.46578   -13137.945    9577.8491    9487.0481    9785.1793    9461.3199    2.6494981    39.846785   -74.720311    40.500002    40.500002    40.500002    44.154796   -3.3191794 
     290        0.029    283.42882   -13129.379     9747.734    9659.9127    9954.6612    9628.6282    1.8810945    42.451478   -74.863198    40.500002    40.500002    40.500002    44.251152   -3.3189716 
     291       0.0291    281.77984   -13129.379    9780.7554    9691.5973    9989.5137    9661.1552    1.7723982    42.434027   -75.639014    40.500002    40.500002    40.500002    44.349209   -3.3187585 
     292       0.0292    280.13903   -13129.379    9813.6621    9723.1637    10024.252    9693.5703    1.6628789    42.413246     -76.4154    40.500002    40.500002    40.500002    44.446037   -3.3185465 
     293       0.0293    278.50652   -13129.379    9846.4511    9754.6088    10058.874    9725.8701    1.5526311    42.389042   -77.192271    40.500002    40.500002    40.500002    44.541632   -3.3183355 
     294       0.0294    276.88242   -13129.379    9879.1201    9785.9303    10093.377    9758.0527    1.4420191    42.361667   -77.969699    40.500002    40.500002    40.500002    44.635991   -3.3181256 
     295       0.0295    275.26685   -13129.379    9911.6653    9817.1241    10127.758    9790.1141    1.3309367    42.331174    -78.74772    40.500002    40.500002    40.500002    44.729109   -3.3179168 
     296       0.0296    273.65991   -13129.379    9944.0833    9848.1869    10162.012    9822.0508    1.2193739    42.297344   -79.526437    40.500002    40.500002    40.500002    44.820983   -3.3177092 
     297       0.0297    272.06173   -13129.379    9976.3715    9879.1157    10196.138    9853.8609    1.1073468    42.260072   -80.305759    40.500002    40.500002    40.500002    44.911609   -3.3175026 
     298       0.0298    270.47241   -13129.379    10008.527    9909.9081    10230.132    9885.5415   0.99531393    42.219679   -81.085622    40.500002    40.500002    40.500002    45.000984   -3.3172973 
     299       0.0299    268.89207   -13129.379    10040.547    9940.5608    10263.991    9917.0893   0.88324029    42.175989   -81.865849    40.500002    40.500002    40.500002    45.089104    -3.317093 
     300         0.03     283.6604   -13120.933    10208.231    10111.261    10431.244    10082.188   0.05237257    44.890888   -81.964122    40.500002    40.500002    40.500002    45.175967     -3.31689 
     301       0.0301    282.05102   -13120.933    10240.934    10142.547    10465.844    10114.409 -0.063766544    44.839355   -82.767862    40.500002    40.500002    40.500002    45.264168    -3.316682 
     302       0.0302    280.45063   -13120.933    10273.501    10173.695     10500.31    10146.498  -0.17974733    44.784741   -83.571574    40.500002    40.500002    40.500002    45.351113   -3.3164752 
     303       0.0303    278.85935   -13120.933    10305.931    10204.701     10534.64    10178.451  -0.29571377    44.726756   -84.374974    40.500002    40.500002    40.500002    45.436797   -3.3162695 
     304       0.0304    277.27729   -13120.933    10338.219    10235.562     10568.83    10210.265  -0.41156568    44.665736   -85.178301    40.500002    40.500002    40.500002    45.521219   -3.3160651 
     305       0.0305    275.70454   -13120.933    10370.364    10266.275    10602.877    10241.938  -0.52714302    44.601841   -85.981563    40.500002    40.500002    40.500002    45.604373   -3.3158619 
     306       0.0306    274.14123   -13120.933    10402.361    10296.839    10636.779    10273.466  -0.64243039    44.534947   -86.784656    40.500002    40.500002    40.500002    45.686259   -3.3156598 
     307       0.0307    272.58744   -13120.933     10434.21    10327.249    10670.532    10304.847  -0.75730965    44.464939   -87.587287    40.500002    40.500002    40.500002    45.766872    -3.315459 
     308       0.0308    271.04328   -13120.933    10465.906    10357.504    10704.134    10336.079  -0.87143994    44.391692   -88.389546    40.500002    40.500002    40.500002    45.846212   -3.3152595 
     309       0.0309    269.50885   -13120.933    10497.447      10387.6    10737.582    10367.159  -0.98511099     44.31549   -89.191491    40.500002    40.500002    40.500002    45.924273   -3.3150612 
     310        0.031    283.99213   -13112.658    10661.877    10555.017    10901.581    10529.033   -1.8598848    47.115024   -89.247444    40.500002    40.500002    40.500002    46.001055   -3.3148642 
     311       0.0311    282.43258   -13112.658    10694.026     10585.67    10935.694    10560.713   -1.9757001     47.03031    -90.07262    40.500002    40.500002    40.500002      46.0788   -3.3146626 
     312       0.0312    280.88278   -13112.658    10726.021    10616.165    10969.655    10592.242   -2.0908867    46.942405   -90.897134    40.500002    40.500002    40.500002    46.155268   -3.3144624 
     313       0.0313    279.34282   -13112.658    10757.859    10646.499    11003.459    10623.619    -2.205599     46.85122    -91.72108    40.500002    40.500002    40.500002    46.230457   -3.3142634 
     314       0.0314     277.8128   -13112.658    10789.538     10676.67    11037.104     10654.84   -2.3197396    46.756593   -92.544493    40.500002    40.500002    40.500002    46.304365   -3.3140656 
     315       0.0315    276.29281   -13112.658    10821.054    10706.674    11070.588    10685.901   -2.4331596    46.658594   -93.366962    40.500002    40.500002    40.500002    46.376989   -3.3138692 
     316       0.0316    274.78293   -13112.658    10852.406     10736.51    11103.907    10716.801   -2.5460719    46.557347   -94.188772    40.500002    40.500002    40.500002    46.448329   -3.3136741 
     317       0.0317    273.28328   -13112.658    10883.591    10766.175    11137.059    10747.538   -2.6585515    46.452689   -95.009619    40.500002    40.500002    40.500002    46.518381   -3.3134803 
     318       0.0318    271.79392   -13112.658    10914.606    10795.668    11170.043    10778.108   -2.7705961      46.3445   -95.829121    40.500002    40.500002    40.500002    46.587146   -3.3132878 
     319       0.0319    270.31496   -13112.658    10945.449    10824.985    11202.853    10808.511   -2.8817623    46.232716   -96.647286    40.500002    40.500002    40.500002    46.654621   -3.3130967 
     320        0.032    284.42324   -13104.606    11105.581    10988.004    11362.573    10966.167   -3.7835864    49.080591   -96.665456    40.500002    40.500002    40.500002    46.720805   -3.3129069 
     321       0.0321     282.9234   -13104.606     11136.95    11017.798    11395.963     10997.09   -3.8973673    48.958219   -97.504631    40.500002    40.500002    40.500002    46.787571   -3.3127131 
     322       0.0322    281.43394   -13104.606    11168.148    11047.418    11429.181    11027.846   -4.0108063    48.832255   -98.342342    40.500002    40.500002    40.500002    46.853052   -3.3125206 
     323       0.0323    279.95496   -13104.606    11199.172    11076.862    11462.224     11058.43   -4.1239846    48.702507   -99.178107    40.500002    40.500002    40.500002    46.917245   -3.3123295 
     324       0.0324    278.48653   -13104.606    11230.021    11106.128    11495.091    11088.843   -4.2367949    48.569291   -100.01174    40.500002    40.500002    40.500002    46.980149   -3.3121397 
     325       0.0325    277.02874   -13104.606    11260.691    11135.214    11527.778    11119.081    -4.349131    48.432692   -100.84335    40.500002    40.500002    40.500002    47.041765   -3.3119514 
     326       0.0326    275.58166   -13104.606     11291.18    11164.117    11560.281    11149.141   -4.4614965    48.292555   -101.67274    40.500002    40.500002    40.500002     47.10209   -3.3117644 
     327       0.0327    274.14537   -13104.606    11321.486    11192.835      11592.6    11179.022   -4.5738237    48.148984   -102.49985    40.500002    40.500002    40.500002    47.161124   -3.3115787 
     328       0.0328    272.71996   -13104.606    11351.606    11221.366    11624.731     11208.72   -4.6860817    48.001879   -103.32478    40.500002    40.500002    40.500002    47.218867   -3.3113945 
     329       0.0329    271.30549   -13104.606    11381.538    11249.708    11656.671    11238.234   -4.7981803    47.851357   -104.14758    40.500002    40.500002    40.500002    47.275318   -3.3112117 
     330        0.033    284.95102   -13096.827    11536.356    11407.256    11811.111    11390.702   -5.7158032    50.708447   -104.12955    40.500002    40.500002    40.500002    47.330478   -3.3110304 
     331       0.0331     283.5201   -13096.827    11566.725    11435.988     11843.54    11420.648   -5.8309661    50.547368   -104.97033    40.500002    40.500002    40.500002    47.385848   -3.3108455 
     332       0.0332    282.10009   -13096.827    11596.908    11464.533     11875.78     11450.41   -5.9459582    50.382785   -105.80853    40.500002    40.500002    40.500002    47.439933    -3.310662 
     333       0.0333    280.69107   -13096.827    11626.901    11492.889    11907.829    11479.987   -6.0609373    50.214504   -106.64414    40.500002    40.500002    40.500002    47.492734   -3.3104799 
     334       0.0334    279.29311   -13096.827    11656.704    11521.052    11939.684    11509.376   -6.1756237    50.042974   -107.47718    40.500002    40.500002    40.500002    47.544251   -3.3102992 
     335       0.0335    277.90627   -13096.827    11686.313     11549.02    11971.344    11538.574    -6.290098     49.86842   -108.30752    40.500002    40.500002    40.500002    47.594484     -3.31012 
     336       0.0336    276.53063   -13096.827    11715.727    11576.793    12002.807    11567.581   -6.4042845    49.690674   -109.13493    40.500002    40.500002    40.500002    47.643432   -3.3099422 
     337       0.0337    275.16623   -13096.827    11744.944    11604.367    12034.071    11596.394    -6.518203    49.509695   -109.95931    40.500002    40.500002    40.500002    47.691097   -3.3097659 
     338       0.0338    273.81316   -13096.827    11773.962    11631.741    12065.132    11625.012   -6.6318306    49.325303   -110.78071    40.500002    40.500002    40.500002    47.737478   -3.3095911 
     339       0.0339    272.47146   -13096.827    11802.778    11658.912     12095.99    11653.432   -6.7453192    49.137504    -111.5989    40.500002    40.500002    40.500002    47.782577   -3.3094177 
     340        0.034     285.5706   -13089.368    11951.319    11809.959    12244.212    11799.784   -7.6632276    51.963597    -111.5511    40.500002    40.500002    40.500002    47.826393   -3.3092458 
     341       0.0341    284.21693   -13089.368     11980.48    11837.431    12275.463    11828.545   -7.7798454    51.764563   -112.38449    40.500002    40.500002    40.500002    47.870066   -3.3090708 
     342       0.0342    282.87458   -13089.368    12009.442    11864.704    12306.511    11857.111    -7.896227    51.562383   -113.21452    40.500002    40.500002    40.500002    47.912467   -3.3088974 
     343       0.0343    281.54361   -13089.368    12038.203    11891.775    12337.354    11885.479    -8.012221    51.356796   -114.04111    40.500002    40.500002    40.500002    47.953597   -3.3087254 
     344       0.0344    280.22407   -13089.368    12066.761    11918.644    12367.991    11913.647   -8.1276096    51.147793   -114.86421    40.500002    40.500002    40.500002    47.993456   -3.3085548 
     345       0.0345    278.91602   -13089.368    12095.114    11945.308     12398.42    11941.614    -8.242214    50.935317   -115.68351    40.500002    40.500002    40.500002    48.032048   -3.3083858 
     346       0.0346     277.6195   -13089.368    12123.261    11971.765    12428.639    11969.378   -8.3560049     50.71925   -116.49903    40.500002    40.500002    40.500002    48.069371   -3.3082183 
     347       0.0347    276.33456   -13089.368    12151.199    11998.014    12458.645    11996.938   -8.4693828    50.499871   -117.31099    40.500002    40.500002    40.500002    48.105429   -3.3080522 
     348       0.0348    275.06126   -13089.368    12178.927    12024.052    12488.437    12024.291   -8.5821631    50.276815   -118.11951    40.500002    40.500002    40.500002    48.140222   -3.3078877 
     349       0.0349    273.79963   -13089.368    12206.443    12049.879    12518.013    12051.435   -8.6943525    50.050101    -118.9247    40.500002    40.500002    40.500002    48.173751   -3.3077246 
     350        0.035    286.27486   -13082.274    12347.819    12193.479    12659.153    12190.826   -9.5931166     52.80076   -118.85501    40.500002    40.500002    40.500002    48.206019   -3.3075631 
     351       0.0351    285.00568   -13082.274    12375.587    12219.516    12689.023    12218.221   -9.7068654     52.56117   -119.67275    40.500002    40.500002    40.500002     48.23782   -3.3073991 
     352       0.0352    283.74808   -13082.274    12403.145    12245.344     12718.68    12245.411   -9.8197027    52.317829   -120.48684    40.500002    40.500002    40.500002    48.268372   -3.3072366 
     353       0.0353    282.50211   -13082.274    12430.492    12270.962    12748.122    12272.393   -9.9317727    52.070867   -121.29749    40.500002    40.500002    40.500002    48.297679   -3.3070756 
     354       0.0354    281.26781   -13082.274    12457.627    12296.368    12777.347    12299.167   -10.043353    51.820857   -122.10493    40.500002    40.500002    40.500002    48.325741    -3.306916 
     355       0.0355    280.04521   -13082.274    12484.548    12321.561    12806.353     12325.73    -10.15421    51.567886   -122.90907    40.500002    40.500002    40.500002    48.352562   -3.3067581 
     356       0.0356    278.83435   -13082.274    12511.254    12346.539    12835.139    12352.082   -10.264337    51.311736    -123.7097    40.500002    40.500002    40.500002    48.378144   -3.3066016 
     357       0.0357    277.63527   -13082.274    12537.743    12371.303    12863.705    12378.222   -10.373546    51.052299   -124.50658    40.500002    40.500002    40.500002     48.40249   -3.3064466 
     358       0.0358      276.448   -13082.274    12564.014     12395.85    12892.046    12404.147   -10.481667    50.789693    -125.2996    40.500002    40.500002    40.500002    48.425603   -3.3062932 
     359       0.0359    275.27256   -13082.274    12590.066    12420.179    12920.164    12429.856   -10.588764    50.523949   -126.08911    40.500002    40.500002    40.500002    48.447485   -3.3061413 
     360        0.036    287.05449   -13075.582    12723.493    12555.493    13053.455     12561.53   -11.449843    53.156584   -126.01227    40.500002    40.500002    40.500002     48.46814   -3.3059909 
     361       0.0361    285.87569   -13075.582    12749.707    12579.946    13081.773    12587.402   -11.557371    52.878038   -126.81337    40.500002    40.500002    40.500002    48.488042   -3.3058386 
     362       0.0362     284.7086   -13075.582    12775.705    12604.184     13109.87    12613.062   -11.663678    52.596501   -127.61069    40.500002    40.500002    40.500002    48.506734   -3.3056878 
     363       0.0363    283.55324   -13075.582    12801.487    12628.207    13137.745    12638.509   -11.768695    52.311803   -128.40421    40.500002    40.500002    40.500002    48.524217   -3.3055385 
     364       0.0364    282.40965   -13075.582    12827.051    12652.013    13165.397    12663.741   -11.872935    52.024063   -129.19372    40.500002    40.500002    40.500002    48.540495   -3.3053907 
     365       0.0365    281.27784   -13075.582    12852.396    12675.603    13192.825    12688.759   -11.976256    51.733423   -129.97944    40.500002    40.500002    40.500002    48.555573   -3.3052444 
     366       0.0366    280.15783   -13075.582    12877.521    12698.974    13220.028    12713.561   -12.078286    51.440143   -130.76129    40.500002    40.500002    40.500002    48.569454   -3.3050997 
     367       0.0367    279.04964   -13075.582    12902.425    12722.126    13247.003    12738.146   -12.179044    51.144095   -131.53931    40.500002    40.500002    40.500002    48.582142   -3.3049565 
     368       0.0368    277.95328   -13075.582    12927.106    12745.057     13273.75    12762.513   -12.279114    50.845156   -132.31363    40.500002    40.500002    40.500002    48.593641   -3.3048148 
     369       0.0369    276.86877   -13075.582    12951.565    12767.767    13300.266    12786.661   -12.378416    50.543654   -133.08436    40.500002    40.500002    40.500002    48.603954   -3.3046746 
     370        0.037    287.89807   -13069.326    13076.382    12894.096    13425.067    12909.982   -13.185572    53.021206   -133.01287    40.500002    40.500002    40.500002    48.613087    -3.304536 
     371       0.0371    286.81405   -13069.326    13100.918    12916.851    13451.692    12934.209   -13.284905    52.707833   -133.79212    40.500002    40.500002    40.500002    48.621233   -3.3043959 
     372       0.0372    285.74172   -13069.326    13125.233    12939.388    13478.091     12958.22    -13.38324    52.391619   -134.56735    40.500002    40.500002    40.500002    48.628218   -3.3042574 
     373       0.0373    284.68108   -13069.326    13149.328    12961.706    13504.262    12982.015    -13.48038    52.072788   -135.33868    40.500002    40.500002    40.500002    48.634046   -3.3041203 
     374       0.0374    283.63215   -13069.326      13173.2    12983.805    13530.205     13005.59   -13.575969    51.751292   -136.10584    40.500002    40.500002    40.500002    48.638721   -3.3039848 
     375       0.0375    282.59494   -13069.326    13196.851    13005.684     13555.92    13028.948   -13.670251    51.426959   -136.86877    40.500002    40.500002    40.500002    48.642249   -3.3038507 
[...]
    9913       0.9913    300.99975   -13134.025    8806.3989    9148.7003    8711.5418    8558.9547    159.10317     95.68827   -20.889086    40.500002    40.500002    40.500002      37.5047   -3.3224038 
    9914       0.9914    301.07994   -13134.025    8804.7396     9147.267    8708.7388     8558.213    158.55653    96.141024   -20.297921    40.500002    40.500002    40.500002    37.498332   -3.3224142 
    9915       0.9915    301.16031   -13134.025    8803.0834    9145.8249    8705.9367    8557.4886     158.0074     96.58485   -19.704807    40.500002    40.500002    40.500002    37.491938   -3.3224246 
    9916       0.9916    301.24086   -13134.025     8801.431    9144.3745    8703.1366     8556.782    157.45564    97.019779   -19.110068    40.500002    40.500002    40.500002    37.485519    -3.322435 
    9917       0.9917    301.32159   -13134.025    8799.7819     9142.915    8700.3376    8556.0931    156.90173    97.446177   -18.513315    40.500002    40.500002    40.500002    37.479077   -3.3224454 
    9918       0.9918    301.40247   -13134.025    8798.1362     9141.447    8697.5401    8555.4214    156.34597    97.864753   -17.915084    40.500002    40.500002    40.500002    37.472612   -3.3224559 
    9919       0.9919    301.48352   -13134.025    8796.4934    9139.9701    8694.7431    8554.7669    155.78842    98.276159    -17.31601    40.500002    40.500002    40.500002    37.466124   -3.3224663 
    9920        0.992    300.78236    -13134.43    8788.3508    9131.8778    8685.5387    8547.6359    154.99416    98.698649   -16.754565    40.500002    40.500002    40.500002    37.459615   -3.3224768 
    9921       0.9921    300.86362    -13134.43    8786.7157    9130.3855    8682.7463    8547.0153    154.43264    99.096104   -16.154638    40.500002    40.500002    40.500002    37.453093   -3.3224873 
    9922       0.9922    300.94505    -13134.43    8785.0832    9128.8848    8679.9539     8546.411    153.86894    99.486589   -15.554306    40.500002    40.500002    40.500002    37.446547   -3.3224979 
    9923       0.9923    301.02664    -13134.43    8783.4528    9127.3755    8677.1608    8545.8222    153.30327    99.870217   -14.953047    40.500002    40.500002    40.500002     37.43998   -3.3225084 
    9924       0.9924    301.10838    -13134.43    8781.8248    9125.8577    8674.3671    8545.2496    152.73567     100.2471   -14.351056    40.500002    40.500002    40.500002    37.433392    -3.322519 
    9925       0.9925    301.19027    -13134.43    8780.2002    9124.3329    8671.5743    8544.6934    152.16676    100.61732   -13.748015    40.500002    40.500002    40.500002    37.426784   -3.3225295 
    9926       0.9926     301.2723    -13134.43    8778.5791     9122.801    8668.7822     8544.154    151.59631     100.9805   -13.144489    40.500002    40.500002    40.500002    37.420157   -3.3225401 
    9927       0.9927    301.35448    -13134.43    8776.9613    9121.2616    8665.9904    8543.6317    151.02393    101.33725    -12.54072    40.500002    40.500002    40.500002    37.413511   -3.3225508 
    9928       0.9928    301.43678    -13134.43    8775.3458    9119.7139     8663.198    8543.1254    150.44997     101.6877    -11.93636    40.500002    40.500002    40.500002    37.406848   -3.3225614 
    9929       0.9929    301.51921    -13134.43    8773.7334    9118.1583    8660.4053    8542.6366    149.87397     102.0322   -11.330799    40.500002    40.500002    40.500002    37.400167   -3.3225721 
    9930        0.993    300.80088   -13134.843    8765.4674    9109.8298    8651.0682    8535.5042    149.05526     102.3896   -10.761352    40.500002    40.500002    40.500002     37.39347   -3.3225827 
    9931       0.9931    300.88344   -13134.843    8763.8615    9108.2585    8648.2773    8535.0487    148.47604    102.72194   -10.155202    40.500002    40.500002    40.500002    37.386765   -3.3225934 
    9932       0.9932    300.96613   -13134.843     8762.257    9106.6774     8645.485    8534.6087    147.89462    103.04875   -9.5486974    40.500002    40.500002    40.500002    37.380041   -3.3226041 
    9933       0.9933    301.04895   -13134.843     8760.654    9105.0874    8642.6912    8534.1836      147.311    103.36973    -8.940939    40.500002    40.500002    40.500002      37.3733   -3.3226148 
    9934       0.9934    301.13189   -13134.843    8759.0522     9103.488    8639.8957    8533.7729    146.72529    103.68436   -8.3323855    40.500002    40.500002    40.500002    37.366543   -3.3226255 
    9935       0.9935    301.21495   -13134.843    8757.4515    9101.8788    8637.0986     8533.377    146.13745    103.99344   -7.7235136    40.500002    40.500002    40.500002    37.359769   -3.3226362 
    9936       0.9936    301.29811   -13134.843    8755.8522    9100.2602    8634.2996    8532.9967    145.54746    104.29618   -7.1143853    40.500002    40.500002    40.500002    37.352979    -3.322647 
    9937       0.9937    301.38138   -13134.843    8754.2544    9098.6333    8631.4989    8532.6311    144.95506    104.59245     -6.50472    40.500002    40.500002    40.500002    37.346175   -3.3226577 
    9938       0.9938    301.46474   -13134.843    8752.6578    9096.9977    8628.6959    8532.2798    144.36017    104.88228   -5.8947271    40.500002    40.500002    40.500002    37.339356   -3.3226685 
    9939       0.9939    301.54819   -13134.843    8751.0624    9095.3535    8625.8909     8531.943    143.76239    105.16652   -5.2848269    40.500002    40.500002    40.500002    37.332523   -3.3226793 
    9940        0.994    300.81586   -13135.265    8742.6871    9086.8077    8616.4337    8524.8201     142.9164    105.46518   -4.7098825    40.500002    40.500002    40.500002    37.325676   -3.3226901 
    9941       0.9941    300.89938   -13135.265    8741.0948    9085.1457    8613.6274    8524.5112    142.31246    105.73887   -4.1015661    40.500002    40.500002    40.500002    37.318825   -3.3227009 
    9942       0.9942    300.98299   -13135.265    8739.5019    9083.4725    8610.8186    8524.2147    141.70481    106.00765   -3.4942642    40.500002    40.500002    40.500002    37.311959   -3.3227117 
    9943       0.9943    301.06669   -13135.265     8737.909    9081.7884    8608.0079    8523.9307    141.09263     106.2717   -2.8884136    40.500002    40.500002    40.500002     37.30508   -3.3227225 
    9944       0.9944    301.15048   -13135.265     8736.316    9080.0932     8605.195    8523.6599    140.47547    106.53113   -2.2843157    40.500002    40.500002    40.500002    37.298186   -3.3227333 
    9945       0.9945    301.23435   -13135.265    8734.7233    9078.3871    8602.3805    8523.4023    139.85408    106.78568    -1.681162    40.500002    40.500002    40.500002    37.291281   -3.3227442 
    9946       0.9946    301.31829   -13135.265    8733.1313    9076.6705    8599.5649    8523.1586    139.22843     107.0354   -1.0796048    40.500002    40.500002    40.500002    37.284363    -3.322755 
    9947       0.9947     301.4023   -13135.265    8731.5413    9074.9442    8596.7492    8522.9304    138.59867    107.28021  -0.47937702    40.500002    40.500002    40.500002    37.277435   -3.3227659 
    9948       0.9948    301.48637   -13135.265    8729.9534    9073.2083    8593.9345    8522.7173    137.96477    107.52048   0.11968344    40.500002    40.500002    40.500002    37.270496   -3.3227767 
    9949       0.9949    301.57049   -13135.265    8728.3678    9071.4635    8591.1203    8522.5195    137.32643    107.75539   0.71699938    40.500002    40.500002    40.500002    37.263549   -3.3227876 
    9950        0.995    300.82733   -13135.693    8719.9083    9062.7195    8581.5797    8515.4258    136.43633    108.00486    1.2804111    40.500002    40.500002    40.500002    37.256593   -3.3227985 
    9951       0.9951    300.91144   -13135.693    8718.3291    9060.9587      8578.77    8515.2586    135.79142    108.22765    1.8736206    40.500002    40.500002    40.500002    37.249637   -3.3228094 
    9952       0.9952    300.99562   -13135.693    8716.7524    9059.1894    8575.9612    8515.1067    135.14256    108.44452    2.4653011    40.500002    40.500002    40.500002     37.24267   -3.3228202 
    9953       0.9953    301.07985   -13135.693    8715.1782    9057.4115    8573.1531    8514.9698    134.48961    108.65575    3.0558318    40.500002    40.500002    40.500002    37.235695   -3.3228311 
    9954       0.9954    301.16413   -13135.693    8713.6057    9055.6249    8570.3452     8514.847    133.83217    108.86135     3.644663    40.500002    40.500002    40.500002     37.22871    -3.322842 
    9955       0.9955    301.24845   -13135.693    8712.0353    9053.8298     8567.538     8514.738    133.17005    109.06163    4.2317106    40.500002    40.500002    40.500002    37.221717   -3.3228529 
    9956       0.9956    301.33282   -13135.693    8710.4665    9052.0255    8564.7311    8514.6427     132.5031    109.25596    4.8170437    40.500002    40.500002    40.500002    37.214716   -3.3228638 
    9957       0.9957    301.41721   -13135.693    8708.8995    9050.2123    8561.9248    8514.5613    131.83153    109.44434    5.4001574    40.500002    40.500002    40.500002    37.207709   -3.3228747 
    9958       0.9958    301.50163   -13135.693    8707.3343    9048.3898    8559.1194    8514.4935    131.15495    109.62703    5.9805505    40.500002    40.500002    40.500002    37.200695   -3.3228856 
    9959       0.9959    301.58606   -13135.693    8705.7709    9046.5583    8556.3154     8514.439    130.47391    109.80394    6.5583225    40.500002    40.500002    40.500002    37.193674   -3.3228965 
    9960        0.996    300.83526   -13136.125    8697.2676    9037.6599    8546.7383    8507.4048    129.53824    109.99601    7.1044227    40.500002    40.500002    40.500002    37.186649   -3.3229074 
    9961       0.9961    300.91961   -13136.125    8695.7102    9035.8126    8543.9414    8507.3766    128.84957    110.16077    7.6754613    40.500002    40.500002    40.500002    37.179627   -3.3229183 
    9962       0.9962    301.00398   -13136.125    8694.1542    9033.9554    8541.1465    8507.3607    128.15607    110.31974    8.2434463    40.500002    40.500002    40.500002    37.172598   -3.3229293 
    9963       0.9963    301.08838   -13136.125    8692.5998    9032.0886    8538.3542    8507.3568    127.45794    110.47252    8.8085606    40.500002    40.500002    40.500002    37.165563   -3.3229402 
    9964       0.9964    301.17279   -13136.125    8691.0469    9030.2119    8535.5641    8507.3646    126.75617    110.61939    9.3711026    40.500002    40.500002    40.500002    37.158522   -3.3229511 
    9965       0.9965    301.25721   -13136.125    8689.4955    9028.3261    8532.7764    8507.3842    126.05103     110.7597    9.9309716    40.500002    40.500002    40.500002    37.151477    -3.322962 
    9966       0.9966    301.34163   -13136.125    8687.9465    9026.4317    8529.9916    8507.4161     125.3431    110.89335    10.488009    40.500002    40.500002    40.500002    37.144427   -3.3229729 
    9967       0.9967    301.42604   -13136.125    8686.4007    9024.5295    8527.2108    8507.4618    124.63237    111.01994    11.042155    40.500002    40.500002    40.500002    37.137373   -3.3229838 
    9968       0.9968    301.51044   -13136.125    8684.8593    9022.6203     8524.435    8507.5225     123.9186    111.13969    11.593785    40.500002    40.500002    40.500002    37.130317   -3.3229947 
    9969       0.9969    301.59482   -13136.125    8683.3227    9020.7052    8521.6642    8507.5987    123.20232    111.25242    12.143225    40.500002    40.500002    40.500002    37.123259   -3.3230056 
    9970        0.997    300.83959   -13136.559    8674.8127    9011.6876    8512.1061    8500.6445      122.233    111.37881    12.665259    40.500002    40.500002    40.500002    37.116199   -3.3230165 
    9971       0.9971     300.9238   -13136.559    8673.2879     9009.762    8509.3496     8500.752    121.51194    111.47642    13.210647    40.500002    40.500002    40.500002    37.109147   -3.3230274 
    9972       0.9972    301.00801   -13136.559    8671.7677      9007.83    8506.5977    8500.8754      120.788    111.56788    13.754379    40.500002    40.500002    40.500002    37.102092   -3.3230383 
    9973       0.9973    301.09219   -13136.559    8670.2529    9005.8925    8503.8511    8501.0151    120.06097    111.65324    14.296391    40.500002    40.500002    40.500002    37.095035   -3.3230492 
    9974       0.9974    301.17635   -13136.559    8668.7437    9003.9494    8501.1104    8501.1714    119.33092     111.7325    14.836786    40.500002    40.500002    40.500002    37.087977     -3.32306 
    9975       0.9975    301.26048   -13136.559    8667.2408    9002.0009    8498.3766    8501.3449     118.5976    111.80647     15.37519    40.500002    40.500002    40.500002    37.080918   -3.3230709 
    9976       0.9976    301.34457   -13136.559    8665.7436    9000.0469    8495.6492    8501.5346    117.86062    111.87494    15.911452    40.500002    40.500002    40.500002    37.073858   -3.3230818 
    9977       0.9977    301.42862   -13136.559    8664.2529    8998.0883    8492.9286    8501.7418    117.12016    111.93891     16.44541    40.500002    40.500002    40.500002    37.066799   -3.3230926 
    9978       0.9978    301.51261   -13136.559    8662.7688    8996.1254    8490.2145    8501.9665    116.37669    111.99832    16.977101    40.500002    40.500002    40.500002    37.059742   -3.3231035 
    9979       0.9979    301.59654   -13136.559    8661.2922    8994.1593    8487.5077    8502.2097    115.63015    112.05337    17.507458    40.500002    40.500002    40.500002    37.052687   -3.3231143 
    9980        0.998    300.84021   -13136.993    8652.8404    8985.0888    8478.0283    8495.4042    114.63167    112.12651    18.015455    40.500002    40.500002    40.500002    37.045636   -3.3231252 
    9981       0.9981     300.9239   -13136.993    8651.3821    8983.1199    8475.3418    8495.6846    113.88082    112.17405    18.543757    40.500002    40.500002    40.500002    37.038597    -3.323136 
    9982       0.9982    301.00755   -13136.993    8649.9313    8981.1475    8472.6631    8495.9834     113.1273    112.21808    19.071556    40.500002    40.500002    40.500002    37.031561   -3.3231468 
    9983       0.9983    301.09113   -13136.993    8648.4876    8979.1709    8469.9923    8496.2998    112.37138    112.25941    19.599369    40.500002    40.500002    40.500002    37.024527   -3.3231576 
    9984       0.9984    301.17465   -13136.993    8647.0512    8977.1895    8467.3301    8496.6338    111.61278    112.29801     20.12717    40.500002    40.500002    40.500002    37.017497   -3.3231684 
    9985       0.9985     301.2581   -13136.993    8645.6219    8975.2037    8464.6768    8496.9852    110.85195    112.33427    20.654997    40.500002    40.500002    40.500002     37.01047   -3.3231792 
    9986       0.9986    301.34147   -13136.993    8644.2007    8973.2144    8462.0332    8497.3546    110.08923    112.36787    21.182463    40.500002    40.500002    40.500002    37.003449   -3.3231899 
    9987       0.9987    301.42476   -13136.993    8642.7874    8971.2211    8459.3993    8497.7419    109.32519    112.39886     21.70948    40.500002    40.500002    40.500002    36.996434   -3.3232007 
    9988       0.9988    301.50795   -13136.993     8641.382    8969.2234    8456.7755     8498.147     108.5603     112.4268    22.235755    40.500002    40.500002    40.500002    36.989424   -3.3232115 
    9989       0.9989    301.59105   -13136.993     8639.985    8967.2217    8454.1633      8498.57    107.79532    112.45175    22.761101    40.500002    40.500002    40.500002    36.982422   -3.3232222 
    9990        0.999    300.83702   -13137.426    8631.6394    8958.1402    8444.8243    8491.9538    106.78387    112.49553    23.266795    40.500002    40.500002    40.500002    36.975427   -3.3232329 
    9991       0.9991     300.9198   -13137.426    8630.2602    8956.1318    8442.2381    8492.4108    106.01988    112.51528    23.787269    40.500002    40.500002    40.500002    36.968449   -3.3232436 
    9992       0.9992    301.00248   -13137.426    8628.8884    8954.1175     8439.663    8492.8847    105.25626    112.53273     24.30572    40.500002    40.500002    40.500002    36.961477   -3.3232543 
    9993       0.9993    301.08507   -13137.426    8627.5238    8952.0975    8437.0996    8493.3742    104.49289    112.54773     24.82283    40.500002    40.500002    40.500002    36.954513    -3.323265 
    9994       0.9994    301.16755   -13137.426    8626.1661    8950.0715    8434.5476    8493.8793    103.72956    112.56062    25.338477    40.500002    40.500002    40.500002    36.947556   -3.3232756 
    9995       0.9995    301.24992   -13137.426    8624.8156    8948.0401    8432.0075    8494.3992    102.96692    112.57083    25.852427    40.500002    40.500002    40.500002    36.940607   -3.3232863 
    9996       0.9996    301.33217   -13137.426    8623.4726    8946.0044    8429.4791    8494.9343    102.20518    112.57795    26.364807    40.500002    40.500002    40.500002    36.933668   -3.3232969 
    9997       0.9997     301.4143   -13137.426    8622.1362    8943.9634    8426.9611     8495.484    101.44383    112.58184    26.874986    40.500002    40.500002    40.500002    36.926738   -3.3233075 
    9998       0.9998    301.49629   -13137.426    8620.8069    8941.9178    8424.4549    8496.0479    100.68292    112.58217    27.383099    40.500002    40.500002    40.500002    36.919818   -3.3233181 
    9999       0.9999    301.57814   -13137.426    8619.4855    8939.8689     8421.961    8496.6267    99.922747    112.57923    27.888998    40.500002    40.500002    40.500002     36.91291   -3.3233287 
   10000            1    300.82993   -13137.855    8611.2739    8930.8006    8412.8147    8490.2066    98.921263    112.59489    28.379033    40.500002    40.500002    40.500002    36.906014   -3.3233393 
Loop time of 42.9281 on 10 procs for 10000 steps with 4000 atoms

Performance: 2.013 ns/day, 11.924 hours/ns, 232.948 timesteps/s
94.0% CPU use with 10 MPI tasks x no OpenMP threads

MPI task timing breakdown:
Section |  min time  |  avg time  |  max time  |%varavg| %total
---------------------------------------------------------------
Pair    | 25.627     | 26.255     | 28.457     |  15.1 | 61.16
Neigh   | 0          | 0          | 0          |   0.0 |  0.00
Comm    | 1.0341     | 1.354      | 1.7423     |  24.5 |  3.15
Output  | 11.575     | 13.394     | 14.118     |  18.2 | 31.20
Modify  | 0.82804    | 0.91474    | 1.015      |   6.9 |  2.13
Other   |            | 1.01       |            |       |  2.35

Nlocal:        400.000 ave         400 max         400 min
Histogram: 10 0 0 0 0 0 0 0 0 0
Nghost:        3182.00 ave        3182 max        3182 min
Histogram: 10 0 0 0 0 0 0 0 0 0
Neighs:        42578.0 ave       42578 max       42578 min
Histogram: 10 0 0 0 0 0 0 0 0 0

Total # of neighbors = 425780
Ave neighs/atom = 106.44500
Neighbor list builds = 0
Dangerous builds = 0
unfix 		1
unfix 		2

clear
next t
next i
next r
jump Timestep_determination.lmpin
#####################################################################################################################
# Course: Theory, Modelling, and Simulation of Microstructures (TMS) - Summer semester 2021
# Tutors: Dr. Arun Prakash, Vimal Muthusamy
# Description: Script to determine the timestep for a given interatomic potential
######################################################################################################################

# ------------------------ VARIABLES INITIALIZATION ----------------------------
variable i loop 6
variable t index 0.0001 0.0005 0.001 0.002 0.005 0.01
variable r index 10000 2000 1000 500 200 100 # No of steps for 1 ps

log log.time_step_$t.lammps
log log.time_step_0.0005.lammps
