
# ------------------------ INITIALIZATION ----------------------------
clear
variable        latt0 equal 4.05000018187522  ### provide the lattice constant from your calculation
variable        lblock  equal 10

units           metal
atom_style      atomic
boundary        p  p  p
newton          off  off
processors      *  *  *


# ---------- STRUCTURE GENERATION ---------------------
lattice         fcc  ${latt0}  orient  x  1  0  0  orient  y  0  1  0  orient  z  0  0  1  origin  0.0    0.0    0.0
lattice         fcc  4.05000018187522  orient  x  1  0  0  orient  y  0  1  0  orient  z  0  0  1  origin  0.0    0.0    0.0
Lattice spacing in x,y,z = 4.0500002 4.0500002 4.0500002
region          sim_region  block  0  ${lblock}  0  ${lblock}  0  ${lblock}  units  lattice
region          sim_region  block  0  10  0  ${lblock}  0  ${lblock}  units  lattice
region          sim_region  block  0  10  0  10  0  ${lblock}  units  lattice
region          sim_region  block  0  10  0  10  0  10  units  lattice
create_box      1  sim_region
Created orthogonal box = (0.0000000 0.0000000 0.0000000) to (40.500002 40.500002 40.500002)
  1 by 2 by 5 MPI processor grid
create_atoms    1  box
Created 4000 atoms
  using lattice units in orthogonal box = (0.0000000 0.0000000 0.0000000) to (40.500002 40.500002 40.500002)
  create_atoms CPU = 0.000 seconds


# ------------------------ FORCE FIELDS ------------------------------
pair_style      eam/alloy ### TYPE OF POTENTIAL (eam (OR) eam/alloy)
pair_coeff      *  * /home03/nm95xule/TMS_SS2022Nan/Mishin_updated-Al-Co-2013.eam.alloy Al  ### POTENTIAL FILENAME

variable        natoms equal "count(all)"
variable        ecoh equal "pe/v_natoms"


# ------------------------- SETTINGS ---------------------------------
neighbor     	2.0 bin
neigh_modify 	delay 3
timestep 	$t
timestep 	0.001
thermo 		1
thermo_style 	custom step time temp etotal press pxx pyy pzz pxy pyz pxz lx ly lz fnorm v_ecoh

velocity 	all create 300.0 16723 rot yes dist gaussian


#--------------- ENERGY EQUILIBRATION --------------------------
fix 		2 all temp/rescale 10 300.0 300.0 1.0 0.5
fix 		1 all nve

run 		$r
run 		1000
Neighbor list info ...
  update every 1 steps, delay 3 steps, check yes
  max neighbors/atom: 2000, page size: 100000
  master list distance cutoff = 8.499539
  ghost atom cutoff = 8.499539
  binsize = 4.2497695, bins = 10 10 10
  1 neighbor lists, perpetual/occasional/extra = 1 0 0
  (1) pair eam/alloy, perpetual
      attributes: half, newton off
      pair build: half/bin/newtoff
      stencil: full/bin/3d
      bin: standard
Per MPI rank memory allocation (min/avg/max) = 3.486 | 3.486 | 3.487 Mbytes
Step Time Temp TotEng Press Pxx Pyy Pzz Pxy Pyz Pxz Lx Ly Lz Fnorm v_ecoh 
       0            0          300   -13284.927    2493.3961    2492.1088    2488.1545    2499.9249    12.334899    1.2479016   -11.799564    40.500002    40.500002    40.500002 8.9842794e-15        -3.36 
       1        0.001     299.5345   -13284.926    2496.0566    2494.8381     2490.948    2502.3838    12.326799     1.239889    -11.76805    40.500002    40.500002    40.500002    1.6715794   -3.3599398 
       2        0.002    298.14188   -13284.926    2504.2756    2503.2625    2499.5659    2509.9982    12.305276    1.2194468   -11.676371    40.500002    40.500002    40.500002    3.3389732   -3.3597597 
       3        0.003    295.83371   -13284.925    2517.9983    2517.3226    2513.9538    2522.7184    12.272864    1.1894277   -11.531109    40.500002    40.500002    40.500002     4.998375   -3.3594613 
       4        0.004    292.62901   -13284.925    2537.0889     2536.873    2533.9858     2540.408    12.234855    1.1549049    -11.33945    40.500002    40.500002    40.500002    6.6459884    -3.359047 
       5        0.005    288.55403   -13284.924    2561.1852    2561.5147    2559.3749    2562.6661    12.208358    1.0600154   -11.100125    40.500002    40.500002    40.500002    8.2782825   -3.3585201 
       6        0.006     283.6417   -13284.922    2590.1636    2591.0472    2590.1477     2589.296    12.193107    0.9124457   -10.806024    40.500002    40.500002    40.500002    9.8929137    -3.357885 
       7        0.007    277.93058   -13284.921    2625.0049    2626.2065    2627.4413    2621.3669    12.010733   0.79677934   -10.428688    40.500002    40.500002    40.500002    11.489422   -3.3571466 
       8        0.008    271.46386   -13284.919    2667.6909    2668.8918    2673.0914    2661.0896    11.613821   0.78982009   -10.000339    40.500002    40.500002    40.500002     13.06833   -3.3563106 
       9        0.009    264.28913   -13284.918    2720.2917    2720.9771    2729.1966    2710.7013    11.193732   0.85941329   -9.6723246    40.500002    40.500002    40.500002    14.629468    -3.355383 
      10         0.01    278.22925   -13273.663    2965.6482    2965.9741    2977.9788    2952.9919    11.543733    1.4237473   -10.168471    40.500002    40.500002    40.500002     16.17191   -3.3543706 
      11        0.011    269.42839   -13273.661    3046.8499    3045.7515    3063.8683      3030.93    11.325082    1.6808565   -10.152785    40.500002    40.500002    40.500002    17.758157   -3.3532328 
      12        0.012    260.02648   -13273.658     3143.123    3140.1767    3165.3661    3123.8262    11.160492    2.0665056   -10.329807    40.500002    40.500002    40.500002    19.321972   -3.3520173 
      13        0.013    250.09338   -13273.656    3254.2292    3249.0393    3282.1929    3231.4554    10.977593    2.6051167   -10.753192    40.500002    40.500002    40.500002    20.858899   -3.3507331 
      14        0.014     239.7046   -13273.654    3379.5603    3371.7814    3413.6983     3353.201    10.699969    3.2912688   -11.434579    40.500002    40.500002    40.500002    22.363951   -3.3493899 
      15        0.015    228.94088   -13273.651    3518.0479    3507.3152    3558.8125    3488.0161    10.324901    4.0780201   -12.404834    40.500002    40.500002    40.500002    23.831645   -3.3479983 
      16        0.016    217.88759   -13273.648    3668.2206    3654.1314    3716.0443     3634.486    9.9301927    4.9470473   -13.674664    40.500002    40.500002    40.500002    25.256138   -3.3465692 
      17        0.017    206.63395   -13273.645    3828.4004    3810.5798     3883.674    3790.9473    9.5499331    5.8867003   -15.194121    40.500002    40.500002    40.500002    26.631412   -3.3451142 
      18        0.018    195.27212   -13273.642    3996.6853    3974.7681    4059.7672    3955.5206    9.2066361    6.8728865   -16.950663    40.500002    40.500002    40.500002    27.951397   -3.3436452 
      19        0.019    183.89611   -13273.639     4170.981    4144.6094    4242.1819    4126.1518      8.92365    7.8872504   -18.955016    40.500002    40.500002    40.500002    29.210069   -3.3421743 
      20         0.02    236.30036   -13240.709    4878.4922    4856.2197    4953.5731    4825.6838    8.4207592    13.703167   -21.251152    40.500002    40.500002    40.500002     30.40153   -3.3407139 
      21        0.021    223.18788   -13240.706    5090.8671    5062.5422    5176.0828    5033.9763    8.2065835    14.898006   -24.195574    40.500002    40.500002    40.500002     31.71899   -3.3390185 
      22        0.022    210.18739   -13240.702    5306.8784     5272.023    5402.5944    5246.0177    8.0228411    16.057586   -27.421231    40.500002    40.500002    40.500002    32.962093   -3.3373376 
      23        0.023    197.40599   -13240.699    5523.9776    5482.1352    5630.5209    5459.2766    7.8455594    17.133675   -30.914217    40.500002    40.500002    40.500002    34.124785   -3.3356851 
      24        0.024    184.94832   -13240.696    5739.6174    5690.3784    5857.2581    5671.2156    7.6570392    18.078293   -34.651284    40.500002    40.500002    40.500002    35.201431   -3.3340744 
      25        0.025    172.91507   -13240.693    5951.3178    5894.3183    6080.2344    5879.4005    7.4667368    18.873617   -38.594641    40.500002    40.500002    40.500002    36.186897   -3.3325186 
      26        0.026    161.40164    -13240.69    6156.6732    6091.5951    6296.9604     6081.464    7.2849726    19.497828   -42.701069    40.500002    40.500002    40.500002    37.076582     -3.33103 
      27        0.027    150.49679   -13240.687    6353.4447    6280.0273    6505.1163    6275.1903    7.1030346    19.909206   -46.943923    40.500002    40.500002    40.500002    37.866489   -3.3296202 
      28        0.028    140.28138   -13240.685    6539.5319    6457.5714     6702.551    6458.4732    6.9060975    20.098012   -51.287787    40.500002    40.500002    40.500002    38.553298   -3.3282995 
      29        0.029    130.82732   -13240.683    6713.0032    6622.3308     6887.289    6629.3898    6.6893249    20.060772   -55.724732    40.500002    40.500002    40.500002    39.134414   -3.3270772 
      30         0.03     211.0983   -13194.727    7611.0482    7536.9202    7782.9564    7513.2681    1.7252955    36.887893   -55.476238    40.500002    40.500002    40.500002    39.607997   -3.3259615 
      31        0.031    200.69042   -13194.725    7804.2801    7718.2797    7990.6962    7703.8645    1.4189966     36.23208   -61.458766    40.500002    40.500002    40.500002    40.107336   -3.3246161 
      32        0.032    191.05962   -13194.724    7984.7488    7886.6834    8185.5942    7881.9689    1.0974415    35.316462   -67.482471    40.500002    40.500002    40.500002    40.502687   -3.3233712 
      33        0.033    182.24963   -13194.723    8151.1059    8040.8292    8366.2767    8046.2118   0.76328671    34.151671   -73.467576    40.500002    40.500002    40.500002     40.79439   -3.3222324 
      34        0.034    174.29297   -13194.722    8302.2137    8179.6284    8531.5677    8195.4451   0.42326377    32.748866   -79.347212    40.500002    40.500002    40.500002    40.983615    -3.321204 
      35        0.035    167.21078   -13194.722    8437.2201    8302.2909    8680.5502    8328.8191   0.10110437    31.142578   -85.063112    40.500002    40.500002    40.500002    41.072402   -3.3202887 
      36        0.036    161.01289   -13194.722    8555.5258     8408.258     8812.544    8445.7753  -0.17010651    29.365033   -90.532851    40.500002    40.500002    40.500002    41.063628   -3.3194878 
      37        0.037    155.69805   -13194.722    8656.8293    8497.2859    8927.1411    8546.0609  -0.33789999    27.427293   -95.715779    40.500002    40.500002    40.500002    40.960998   -3.3188011 
      38        0.038    151.25438   -13194.723    8741.0327    8569.3722    9024.1497    8629.5762  -0.38319846    25.359509   -100.58196    40.500002    40.500002    40.500002    40.769052    -3.318227 
      39        0.039    147.65999   -13194.724    8808.2659    8624.7383    9103.6137    8696.4456  -0.29184034    23.201256   -105.10132    40.500002    40.500002    40.500002      40.4931   -3.3177627 
      40         0.04    222.44185   -13154.634    9503.4861    9320.2452     9798.548    9391.6652   -3.7069125    39.791746   -103.59987    40.500002    40.500002    40.500002    40.139161   -3.3174043 
      41        0.041    219.78398   -13154.636    9550.4344    9353.3345     9859.135    9438.8336   -3.2628666    37.011054   -108.32556    40.500002    40.500002    40.500002    39.629014   -3.3170613 
      42        0.042    217.66945   -13154.638    9586.6989    9376.2489    9908.3425    9475.5054   -2.7597349    34.261559   -112.63496    40.500002    40.500002    40.500002    39.073379   -3.3167885 
      43        0.043    216.03812    -13154.64    9613.3457     9390.164    9947.1878    9502.6852   -2.2652505    31.606007   -116.48836    40.500002    40.500002    40.500002    38.482362   -3.3165782 
      44        0.044    214.82715   -13154.642    9631.5793    9396.3866    9976.8382    9521.5131   -1.8836712    29.145035   -119.84366    40.500002    40.500002    40.500002    37.866468   -3.3164222 
      45        0.045    213.97231   -13154.644    9642.7566    9396.3332    9998.5707     9533.366   -1.7034332    26.947257   -122.71209    40.500002    40.500002    40.500002    37.236416   -3.3163123 
      46        0.046    213.40923   -13154.646    9648.2019    9391.3114    10013.714    9539.5799   -1.7508173    24.989042   -125.17634    40.500002    40.500002    40.500002     36.60312     -3.31624 
      47        0.047    213.07452   -13154.648    9649.3371    9382.7265    10023.726    9541.5586   -2.0584966    23.157661   -127.25637    40.500002    40.500002    40.500002    35.977473   -3.3161973 
      48        0.048    212.90695    -13154.65    9647.5527    9371.9227    10030.087    9540.6481   -2.6841421    21.446365   -128.91238    40.500002    40.500002    40.500002    35.370263   -3.3161761 
      49        0.049    212.84837   -13154.652    9644.2489    9360.2082    10034.328    9538.2107   -3.6517698    19.867307   -130.14255    40.500002    40.500002    40.500002    34.791935   -3.3161689 
      50         0.05    256.42232   -13132.128    10002.899    9704.0887     10398.38    9906.2276   -4.6103778     25.96829   -129.73477    40.500002    40.500002    40.500002    34.252337   -3.3161688 
      51        0.051    256.34158   -13132.129      10001.9    9695.3293    10404.359    9906.0129   -6.6409826    24.330866   -130.12858    40.500002    40.500002    40.500002    33.721388   -3.3161588 
      52        0.052    256.05434    -13132.13    10006.821    9693.2704    10415.573    9911.6191   -9.2372889    22.690923   -130.02734    40.500002    40.500002    40.500002    33.269918    -3.316122 
      53        0.053    255.52152   -13132.131    10018.474    9698.8351     10432.76    9923.8268   -12.390985    21.107349   -129.57956    40.500002    40.500002    40.500002    32.905748   -3.3160534 
      54        0.054    254.71217   -13132.132    10037.625    9712.7666    10456.697    9943.4121   -15.930176    19.729385   -129.04582    40.500002    40.500002    40.500002    32.634819   -3.3159489 
      55        0.055    253.60377   -13132.133     10064.94    9735.5935    10488.109     9971.116   -19.929602    18.620339   -128.45995    40.500002    40.500002    40.500002    32.461024   -3.3158058 
      56        0.056    252.18245   -13132.133    10100.903    9767.8179    10527.446    10007.447   -24.476628    17.811836    -127.7821    40.500002    40.500002    40.500002    32.385932   -3.3156222 
      57        0.057    250.44281   -13132.133    10145.529    9809.5501     10574.68    10052.356   -29.414385    17.270057   -127.19782    40.500002    40.500002    40.500002    32.408707   -3.3153973 
      58        0.058    248.38782   -13132.132    10198.465    9860.4954    10629.499    10105.401   -34.574597     16.79727    -126.8706    40.500002    40.500002    40.500002    32.526296   -3.3151317 
      59        0.059    246.02845   -13132.132    10259.126    9920.2088    10691.178    10165.992   -39.792422    16.256652   -126.85156    40.500002    40.500002    40.500002    32.733605   -3.3148266 
      60         0.06    271.69167   -13117.498    10562.095    10213.745    10997.007    10475.532   -43.319572    19.461379   -127.95819    40.500002    40.500002    40.500002     33.02377   -3.3144846 
      61        0.061    268.57082   -13117.497    10641.421    10294.342    11075.517    10554.403   -48.538705     19.04078   -128.31078    40.500002    40.500002    40.500002    33.414646    -3.314081 
      62        0.062    265.10717   -13117.495    10728.692    10383.978     11161.03    10641.068   -53.441596    18.822247   -128.67693    40.500002    40.500002    40.500002    33.884939   -3.3136331 
      63        0.063    261.34314   -13117.494     10822.69    10481.373     11252.37    10734.328   -58.117129    18.857736   -129.16311    40.500002    40.500002    40.500002    34.422761   -3.3131463 
      64        0.064    257.32789   -13117.492    10922.109    10585.203    11348.356    10832.767   -62.675028    19.158259   -129.73995    40.500002    40.500002    40.500002    35.015579    -3.312627 
      65        0.065    253.11649    -13117.49    11025.559    10694.004    11447.756    10934.917   -67.146437    19.758019   -130.20577    40.500002    40.500002    40.500002    35.650511   -3.3120823 
      66        0.066    248.76895   -13117.488    11131.603    10806.395    11549.203     11039.21   -71.622869    20.645894   -130.46476    40.500002    40.500002    40.500002    36.314627   -3.3115199 
      67        0.067    244.34926   -13117.486    11238.734    10920.914    11651.107    11144.182   -75.994837    21.891547   -130.52861    40.500002    40.500002    40.500002    36.995313   -3.3109482 
      68        0.068    239.92421   -13117.484    11345.157    11035.666    11751.594    11248.211   -80.127385    23.531922   -130.50632    40.500002    40.500002    40.500002     37.68047   -3.3103758 
      69        0.069    235.56224   -13117.482    11449.202    11148.931    11848.969    11349.707   -83.956108    25.627801   -130.41239    40.500002    40.500002    40.500002    38.358595   -3.3098116 
      70         0.07     265.6662   -13099.732    11834.622    11533.829    12233.765     11736.27   -84.867555    33.305829   -133.09849    40.500002    40.500002    40.500002    39.018971   -3.3092644 
      71        0.071    261.27786    -13099.73    11937.719    11648.347      12328.2    11836.608   -87.894983    36.678267   -132.67055    40.500002    40.500002    40.500002    39.703701   -3.3086968 
      72        0.072    257.03576   -13099.727    12036.789     11759.46    12417.831    11933.076   -90.296428     40.57847   -132.16456    40.500002    40.500002    40.500002    40.362177    -3.308148 
      73        0.073    253.01038   -13099.725    12130.198    11865.337    12501.123    12024.134   -92.032245    44.877568   -131.67359    40.500002    40.500002    40.500002    40.985138   -3.3076273 
      74        0.074    249.26955   -13099.723    12216.362    11964.148    12576.621    12108.317    -93.11696    49.463644   -131.30278    40.500002    40.500002    40.500002    41.564401   -3.3071433 
      75        0.075    245.87729   -13099.721    12293.764    12054.153    12642.919     12184.22   -93.579613    54.287802   -131.10384    40.500002    40.500002    40.500002    42.092717   -3.3067045 
      76        0.076    242.89272    -13099.72    12360.954    12133.738     12698.64    12250.483   -93.470942    59.351577   -131.06996    40.500002    40.500002    40.500002    42.563823   -3.3063184 
      77        0.077    240.36916   -13099.718     12416.83    12201.657    12742.777    12306.057   -92.820173    64.643464   -131.19162    40.500002    40.500002    40.500002    42.972507   -3.3059919 
      78        0.078    238.35332   -13099.717    12460.333    12256.763    12774.329    12349.906   -91.528099     70.12061   -131.42293    40.500002    40.500002    40.500002    43.314407   -3.3057311 
      79        0.079    236.88461   -13099.716      12490.6    12298.012    12792.635    12381.154    -89.55781    75.718004    -131.8329    40.500002    40.500002    40.500002    43.586083    -3.305541 
      80         0.08    267.99728   -13083.172    12772.947    12588.355    13068.132    12662.353   -85.923058    86.289433   -135.90363    40.500002    40.500002    40.500002    43.785031   -3.3054258 
      81        0.081    267.62142   -13083.172    12776.751    12602.221    13059.279    12668.752   -82.442334    92.494063   -136.73285    40.500002    40.500002    40.500002    43.924318   -3.3053771 
      82        0.082    267.76569   -13083.172    12768.232      12602.8    13038.334    12663.561   -78.371241    98.884415   -137.81488    40.500002    40.500002    40.500002    43.996553   -3.3053957 
      83        0.083    268.43865   -13083.172     12747.07    12589.733    13005.058    12646.419   -73.748316    105.35779   -139.23494    40.500002    40.500002    40.500002    44.001755   -3.3054827 
      84        0.084    269.64102   -13083.172    12713.238     12562.96    12959.491    12617.262   -68.582971    111.76792   -141.03099    40.500002    40.500002    40.500002    43.940787   -3.3056381 
      85        0.085    271.36578   -13083.172    12666.859    12522.586    12901.802    12576.188   -62.920234    118.05182   -143.26791    40.500002    40.500002    40.500002    43.815273   -3.3058611 
      86        0.086    273.59838   -13083.173    12608.334    12469.062    12832.406    12523.535   -56.856705    124.08552   -145.98825    40.500002    40.500002    40.500002    43.627609   -3.3061498 
      87        0.087    276.31709   -13083.174    12538.281    12403.017    12751.836     12459.99   -50.504568    129.77561   -149.13117    40.500002    40.500002    40.500002     43.38091   -3.3065013 
      88        0.088    279.49369   -13083.175    12457.397    12325.173    12660.789    12386.228   -44.061231    135.16742   -152.56667    40.500002    40.500002    40.500002    43.078935   -3.3069121 
      89        0.089    283.09396   -13083.176    12366.405    12236.346    12559.963    12302.905   -37.625536    140.26117   -156.34109    40.500002    40.500002    40.500002    42.725977   -3.3073777 
      90         0.09    293.53921   -13079.838    12319.998    12192.195    12503.992    12263.806   -31.402563    145.65133   -161.06922    40.500002    40.500002    40.500002    42.326836   -3.3078929 
      91        0.091    297.90025    -13079.84    12211.054    12083.666    12386.047    12163.448   -25.249404    149.95706   -165.59764    40.500002    40.500002    40.500002    41.883021   -3.3084569 
      92        0.092    302.53301   -13079.841    12095.862    11967.991    12262.388    12057.206   -19.406997     153.6117   -170.41795    40.500002    40.500002    40.500002    41.406019    -3.309056 
      93        0.093    307.38641   -13079.843    11975.583    11846.416    12134.137    11946.196   -13.859396    156.42943   -175.41817    40.500002    40.500002    40.500002    40.902071   -3.3096836 
      94        0.094    312.40733   -13079.845    11851.506    11720.307     12002.55     11831.66   -8.7167488    158.32219   -180.47963    40.500002    40.500002    40.500002     40.37767   -3.3103329 
      95        0.095    317.54142   -13079.846    11724.818    11590.972    11868.791    11714.691    -3.954802    159.27077   -185.47878    40.500002    40.500002    40.500002    39.839546   -3.3109967 
      96        0.096    322.73397   -13079.848    11596.887    11459.867     11734.34    11596.454   0.41135575     159.1769   -190.29709    40.500002    40.500002    40.500002    39.294621   -3.3116682 
      97        0.097    327.93069    -13079.85    11469.146    11328.488    11600.727    11478.224    4.3418325    158.09422   -194.81391    40.500002    40.500002    40.500002    38.749926   -3.3123402 
      98        0.098    333.07838   -13079.851    11342.757    11198.151    11468.997    11361.123    7.7728899    156.15612   -198.99855    40.500002    40.500002    40.500002    38.212396   -3.3130058 
      99        0.099    338.12553   -13079.853    11218.919    11070.162    11340.323    11246.273    10.673493    153.39756   -202.84748    40.500002    40.500002    40.500002    37.688839   -3.3136584 
     100          0.1     321.5114   -13090.974    10920.149    10763.167    11040.798    10956.481    13.418167    148.30088   -204.38851    40.500002    40.500002    40.500002    37.185927   -3.3142916 
     101        0.101    326.09538   -13090.975    10808.198    10646.893    10925.474    10852.228    15.370843    144.21195    -207.0488    40.500002    40.500002    40.500002    36.721791   -3.3148843 
     102        0.102    330.51268   -13090.976    10700.647     10535.07    10815.077    10751.794    16.953685    139.50425   -209.36995    40.500002    40.500002    40.500002    36.282807   -3.3154555 
     103        0.103    334.72356   -13090.977    10598.418     10428.79    10710.404    10656.059    18.090731    134.32757   -211.29089    40.500002    40.500002    40.500002    35.874463   -3.3159999 
     104        0.104    338.69163   -13090.978    10502.479    10329.064    10612.256    10566.118    18.802154    128.83057   -212.87118    40.500002    40.500002    40.500002    35.501819    -3.316513 
     105        0.105    342.38409   -13090.979    10413.668    10236.731    10521.269    10483.003    19.027454    123.09352   -214.03987    40.500002    40.500002    40.500002    35.169449   -3.3169904 
     106        0.106    345.77206    -13090.98    10332.687    10152.466    10438.022    10407.574    18.703239    117.14603   -214.81024    40.500002    40.500002    40.500002    34.881371   -3.3174284 
     107        0.107    348.83076   -13090.981    10260.026     10076.73    10362.992    10340.356     17.93934     110.9395   -215.23876    40.500002    40.500002    40.500002    34.640927   -3.3178238 
     108        0.108    351.53965   -13090.981    10195.909    10009.922    10296.427     10281.38    16.681762    104.53604   -215.59575    40.500002    40.500002    40.500002    34.450752    -3.318174 
     109        0.109    353.88255   -13090.982    10140.667    9952.4115    10238.693    10230.898    14.859031    98.020741   -215.96314    40.500002    40.500002    40.500002    34.312768   -3.3184769 
     110         0.11    327.92385   -13105.416    9862.3678    9669.0276    9962.9746    9955.1013    12.070234    88.028782   -214.23882    40.500002    40.500002    40.500002    34.228119   -3.3187309 
     111        0.111    329.47979   -13105.416    9825.8256    9631.0308    9924.1564    9922.2896    9.5750853    81.967713    -214.7202    40.500002    40.500002    40.500002    34.194219    -3.318932 
     112        0.112    330.74129   -13105.416    9796.2886     9600.404    9892.4918    9895.9699    6.7408469    76.129332   -215.24925    40.500002    40.500002    40.500002    34.203134    -3.319095 
     113        0.113    331.70903   -13105.416    9773.6584     9577.062    9867.8153     9876.098    3.6023751    70.440173   -215.66567    40.500002    40.500002    40.500002    34.253858     -3.31922 
     114        0.114    332.38724   -13105.416    9757.6383    9560.7646    9849.7885    9862.3618  0.097655581    64.863443    -215.7987    40.500002    40.500002    40.500002    34.344741   -3.3193076 
     115        0.115    332.78344   -13105.415    9748.0163    9551.2345     9838.234    9854.5805   -3.7063457    59.536638   -215.55437    40.500002    40.500002    40.500002    34.473705   -3.3193587 
     116        0.116    332.90816   -13105.415    9744.4433    9548.0675    9832.8941    9852.3683   -7.7063951    54.381564   -214.91872    40.500002    40.500002    40.500002    34.638279   -3.3193747 
     117        0.117    332.77482   -13105.414    9746.6474    9550.8627    9833.5731    9855.5063   -11.948652    49.389825   -214.01084    40.500002    40.500002    40.500002    34.835635   -3.3193574 
     118        0.118    332.39959   -13105.414    9754.3528    9559.3359    9840.0314    9863.6911   -16.405782    44.696014   -212.93438    40.500002    40.500002    40.500002    35.062499   -3.3193087 
     119        0.119     331.8013   -13105.413    9767.1271    9573.0023    9851.8943    9876.4846   -20.920691    40.360147   -211.58664    40.500002    40.500002    40.500002    35.315311   -3.3192313 
     120         0.12    315.50059   -13113.425     9655.625       9462.1    9741.5364    9763.2387   -25.889991    33.323782   -209.27644    40.500002    40.500002    40.500002    35.590284   -3.3191277 
     121        0.121    314.56773   -13113.424    9675.9052    9483.5652    9761.2119    9782.9385   -30.067426    29.818689   -207.32896    40.500002    40.500002    40.500002    35.874112   -3.3190069 
     122        0.122    313.53025   -13113.423    9698.4587    9507.5253    9783.2442    9804.6066   -34.124102    26.668849   -204.94449    40.500002    40.500002    40.500002    36.166952   -3.3188727 
     123        0.123    312.41367   -13113.423    9722.7113    9533.4721    9806.9628    9827.6991   -37.945728     23.92713   -202.06338    40.500002    40.500002    40.500002    36.464834   -3.3187282 
     124        0.124    311.24419   -13113.422    9748.2598    9561.0315    9831.8786    9851.8692     -41.4948    21.560496   -198.63929    40.500002    40.500002    40.500002    36.763831   -3.3185768 
     125        0.125    310.04835   -13113.421    9774.6625    9589.7132    9857.5664     9876.708   -44.857976    19.407235   -194.57342    40.500002    40.500002    40.500002    37.060026   -3.3184221 
     126        0.126    308.85259    -13113.42    9801.5046    9619.0153    9883.6678    9901.8308   -47.926743    17.422302   -189.68897    40.500002    40.500002    40.500002    37.349738   -3.3182674 
     127        0.127    307.68289   -13113.419    9828.3586    9648.4401    9909.8743    9926.7615   -50.739397    15.617803   -183.95349    40.500002    40.500002    40.500002    37.629471    -3.318116 
     128        0.128    306.56448   -13113.419    9854.6955    9677.4115    9935.7408    9950.9342   -53.289224    13.966131   -177.32792    40.500002    40.500002    40.500002    37.895891   -3.3179713 
     129        0.129    305.52149   -13113.418    9879.9579    9705.4982     9960.667    9973.7085   -55.542524    12.412098     -169.856    40.500002    40.500002    40.500002     38.14586   -3.3178364 
     130         0.13    302.28832     -13114.6    9884.5355    9713.2961     9965.086    9975.2245   -57.447914    10.374241    -161.6327    40.500002    40.500002    40.500002    38.376478   -3.3177141 
     131        0.131    301.46938     -13114.6    9905.7777    9737.8342    9986.1788      9993.32   -58.933868    8.6728625   -152.73115    40.500002    40.500002    40.500002    38.583995   -3.3176081 
     132        0.132    300.79537   -13114.599    9924.1272    9759.7647    10004.478    10008.139   -59.986166    6.6799568   -143.14417    40.500002    40.500002    40.500002    38.766663   -3.3175209 
     133        0.133     300.2828   -13114.599     9939.219     9778.704    10019.747    10019.206   -60.778825    4.3210039   -132.97218    40.500002    40.500002    40.500002    38.922588   -3.3174545 
     134        0.134    299.94552   -13114.598    9950.7772    9794.2879    10031.805    10026.239   -61.467297    1.5588468   -122.29204    40.500002    40.500002    40.500002    39.050252   -3.3174109 
     135        0.135    299.79462   -13114.598    9958.5447    9806.2206    10040.386    10029.027   -62.046708   -1.4961996   -111.06178    40.500002    40.500002    40.500002     39.14856   -3.3173913 
     136        0.136    299.83835   -13114.598     9962.245    9814.1607    10045.152    10027.422   -62.515059   -4.7684676   -99.440154    40.500002    40.500002    40.500002    39.216783   -3.3173969 
     137        0.137    300.08209   -13114.598    9961.6038    9817.8374    10045.768    10021.206   -62.947443   -8.2819181   -87.577922    40.500002    40.500002    40.500002    39.254547   -3.3174284 
     138        0.138    300.52818   -13114.598    9956.6244     9817.351      10042.2    10010.322   -63.382517    -12.05432   -75.594148    40.500002    40.500002    40.500002    39.261935   -3.3174861 
     139        0.139    301.17599   -13114.598    9947.3929    9812.8531    10034.497    9994.8288   -63.785897   -16.045679   -63.561895    40.500002    40.500002    40.500002    39.239319   -3.3175698 
     140         0.14    301.01101   -13115.121     9925.629    9796.2109    10014.262    9966.4147   -64.131819   -20.199049    -51.53299    40.500002    40.500002    40.500002    39.187469   -3.3176792 
     141        0.141    302.04877   -13115.121    9908.2346     9784.061    9998.3994    9942.2433   -64.460977   -24.204102   -39.423301    40.500002    40.500002    40.500002    39.107418   -3.3178134 
     142        0.142    303.27221   -13115.121    9886.8419    9768.1646    9978.5408    9913.8201   -64.725439   -28.180736   -27.322109    40.500002    40.500002    40.500002    39.000305   -3.3179716 
     143        0.143    304.66964   -13115.122    9861.5647    9748.6139    9954.7908    9881.2892   -64.846999   -32.127619   -15.402259    40.500002    40.500002    40.500002    38.867864   -3.3181523 
     144        0.144    306.22696   -13115.122    9832.8212    9725.7764    9927.5684    9845.1188   -64.870665   -35.963932   -3.7911581    40.500002    40.500002    40.500002    38.712091   -3.3183537 
     145        0.145    307.92788   -13115.123     9800.998    9699.9543    9897.2294    9805.8103   -64.905319   -39.603037      7.61058    40.500002    40.500002    40.500002    38.535221   -3.3185736 
     146        0.146     309.7542   -13115.124    9766.5448    9671.5606    9864.0976    9763.9762   -64.941809   -42.936779    18.849684    40.500002    40.500002    40.500002    38.339754   -3.3188098 
     147        0.147    311.68601   -13115.124    9729.9343    9641.0545    9828.4819    9720.2664   -64.953996   -45.987362    29.932512    40.500002    40.500002    40.500002    38.128393   -3.3190596 
     148        0.148    313.70199   -13115.125    9691.5217    9608.7875    9790.7919    9674.9857   -64.969787   -48.821119    40.653722    40.500002    40.500002    40.500002    37.903993   -3.3193203 
     149        0.149    315.77981   -13115.126     9651.615    9574.9031    9751.4573    9628.4846   -64.982248    -51.35587    51.014447    40.500002    40.500002    40.500002    37.669502    -3.319589 
     150         0.15    308.94816   -13119.752    9536.2634    9466.1555    9636.8036    9505.8311   -65.306963   -53.767994    61.139176    40.500002    40.500002    40.500002    37.428043   -3.3198627 
     151        0.151    311.06312   -13119.753    9494.9216    9430.3073    9595.5878    9458.8696   -65.103406   -55.515315    70.573989    40.500002    40.500002    40.500002    37.184822   -3.3201362 
     152        0.152    313.19658   -13119.753    9452.8385    9393.7195    9553.2619    9411.5342   -64.750724   -56.922972     79.46294    40.500002    40.500002    40.500002    36.938051   -3.3204121 
     153        0.153    315.32491   -13119.754    9410.6316    9357.0771    9510.5549    9364.2629   -64.266886   -57.952423    87.719102    40.500002    40.500002    40.500002    36.690944   -3.3206873 
     154        0.154    317.42449   -13119.755    9368.7503    9320.8918    9467.9283    9317.4307   -63.586378   -58.623127    95.521994    40.500002    40.500002    40.500002    36.446724   -3.3209588 
     155        0.155     319.4722   -13119.756    9327.6948    9285.7606    9425.8867     9271.437   -62.677109   -58.934683    102.85422    40.500002    40.500002    40.500002    36.208516   -3.3212236 
     156        0.156    321.44579   -13119.756    9287.9746      9252.11    9384.9755    9226.8384   -61.608018   -58.826553     109.5854    40.500002    40.500002    40.500002    35.979303   -3.3214788 
     157        0.157    323.32398   -13119.757    9249.9975    9220.3505    9345.6133    9184.0287   -60.505301   -58.341673    115.53468    40.500002    40.500002    40.500002    35.762061   -3.3217217 
     158        0.158    325.08687   -13119.758    9214.1847    9190.8098     9308.291    9143.4532   -59.397896    -57.50837    120.61974    40.500002    40.500002    40.500002    35.559572   -3.3219496 
     159        0.159    326.71608   -13119.758    9181.1461    9163.9944    9273.7407    9105.7034   -58.327055   -56.290583    124.71568    40.500002    40.500002    40.500002    35.374415   -3.3221603 
     160         0.16    314.09743   -13127.046    9034.1427    9023.4212    9126.5223    8952.4845   -59.381818   -53.667338     128.6862    40.500002    40.500002    40.500002    35.208989   -3.3223515 
     161        0.161     315.4023   -13127.046    9007.9467    9003.0267    9099.0049    8921.8085   -58.244669   -51.854953    130.39393    40.500002    40.500002    40.500002    35.066436   -3.3225203 
     162        0.162    316.57238   -13127.046    8984.4189    8985.0242     9074.389    8893.8436   -57.060318   -49.710899    131.10803    40.500002    40.500002    40.500002    34.942801   -3.3226716 
     163        0.163    317.59615   -13127.047    8963.7659    8969.5569    9052.9083    8868.8324   -55.623993   -47.244699    130.97426    40.500002    40.500002    40.500002    34.839626   -3.3228039 
     164        0.164    318.46387   -13127.047    8946.1103    8956.7422    9034.7356    8846.8529   -53.757142   -44.402878    129.96357    40.500002    40.500002    40.500002    34.758243   -3.3229161 
     165        0.165     319.1676   -13127.047    8931.7136    8946.7691    9020.2246    8828.1471   -51.390603   -41.231198    127.93867    40.500002    40.500002    40.500002    34.699741   -3.3230071 
     166        0.166    319.70143   -13127.047    8920.7537    8939.7947    9009.6444     8812.822   -48.447939   -37.862191    124.90864    40.500002    40.500002    40.500002    34.664929   -3.3230761 
     167        0.167    320.06155   -13127.047    8913.2414    8935.8118    9003.0421    8800.8703    -44.95999   -34.442966    121.03546    40.500002    40.500002    40.500002     34.65422   -3.3231227 
     168        0.168    320.24633   -13127.047    8909.1761    8934.8754    9000.3031    8792.3496   -40.818117   -31.050375    116.46762    40.500002    40.500002    40.500002    34.667626   -3.3231466 
     169        0.169    320.25628   -13127.047    8908.3583    8936.8142    9001.1482    8787.1126   -36.048396   -27.642973    111.31546    40.500002    40.500002    40.500002    34.704798   -3.3231478 
     170         0.17    310.04701   -13132.241    8827.2275    8857.1518    8923.2871    8701.2436   -32.794523   -22.490305    106.51522    40.500002    40.500002    40.500002    34.765151   -3.3231268 
     171        0.171    309.73688    -13132.24    8832.2194     8864.217    8930.5022     8701.939    -27.00716   -19.107063     100.1824    40.500002    40.500002    40.500002    34.844848   -3.3230867 
     172        0.172    309.29722    -13132.24    8839.5108    8873.1318    8940.2921    8705.1085   -20.674248   -15.759978    93.289028    40.500002    40.500002    40.500002     34.94209   -3.3230298 
     173        0.173    308.73622    -13132.24    8848.8518    8883.6975    8952.2523    8710.6056   -13.956639   -12.460379    85.884145    40.500002    40.500002    40.500002    35.055349   -3.3229573 
     174        0.174    308.06357   -13132.239    8859.9778    8895.6881    8966.0234    8718.2221   -6.9112724   -9.2879041    77.964636    40.500002    40.500002    40.500002    35.182878   -3.3228703 
     175        0.175    307.29032   -13132.239    8872.5745    8908.8678    8981.1859    8727.6698   0.51039306   -6.2672336    69.502944    40.500002    40.500002    40.500002    35.322724   -3.3227702 
     176        0.176    306.42876   -13132.239    8886.3539    8923.0743    8997.3149    8738.6726    8.3205945   -3.3212192     60.57509    40.500002    40.500002    40.500002    35.472771   -3.3226588 
     177        0.177    305.49213   -13132.238    8901.0234    8938.2253    9014.0053    8750.8395    16.512209  -0.62138191    51.084277    40.500002    40.500002    40.500002    35.630796   -3.3225376 
     178        0.178    304.49435   -13132.238    8916.3182    8954.0648    9030.9898       8763.9    25.032399    1.7421568    41.069803    40.500002    40.500002    40.500002    35.794525   -3.3224086 
     179        0.179    303.44983   -13132.237     8931.864    8970.1995      9047.83    8777.5625    33.796448     3.732216    30.652322    40.500002    40.500002    40.500002    35.961666   -3.3222735 
     180         0.18     301.1867    -13132.85    8937.7161    8976.3124    9054.7477    8782.0882    42.514479    5.3687919    20.034719    40.500002    40.500002    40.500002    36.130031   -3.3221343 
     181        0.181    300.09718    -13132.85    8953.5272    8992.4905    9071.1251     8796.966    51.580119    6.0129089    9.2038315    40.500002    40.500002    40.500002    36.296938   -3.3219934 
     182        0.182    299.00902   -13132.849    8969.2868    9008.4181    9087.2417    8812.2008    60.811008    5.8785245   -1.6050157    40.500002    40.500002    40.500002    36.460445   -3.3218526 
     183        0.183    297.93663   -13132.849    8984.9001    9024.1322    9103.0046    8827.5636    70.065904    4.9009728   -12.279293    40.500002    40.500002    40.500002    36.618628   -3.3217139 
     184        0.184    296.89395   -13132.849    9000.1151    9039.4463    9118.1621    8842.7371    79.277791    3.0974428   -22.851049    40.500002    40.500002    40.500002    36.769679   -3.3215791 
     185        0.185    295.89422   -13132.848    9014.7883    9054.2221    9132.6622    8857.4806    88.227458   0.46737287    -33.18137    40.500002    40.500002    40.500002    36.911953   -3.3214498 
     186        0.186    294.94985   -13132.848    9028.7312    9068.1522    9146.3153    8871.7261    96.590362   -2.9568977   -43.241551    40.500002    40.500002    40.500002    37.044039   -3.3213277 
     187        0.187    294.07231   -13132.848     9041.714    9080.9203    9158.8345    8885.3871    104.16968   -7.1975488   -53.006061    40.500002    40.500002    40.500002    37.164676   -3.3212142 
     188        0.188    293.27204   -13132.847    9053.5417    9092.4025    9169.8636    8898.3591    110.90591   -12.191018    -62.43538    40.500002    40.500002    40.500002    37.272838   -3.3211107 
     189        0.189    292.55827   -13132.847    9063.9964    9102.4156    9179.1118    8910.4618    116.83273   -17.911739   -71.517852    40.500002    40.500002    40.500002     37.36768   -3.3210184 
     190         0.19    295.96947   -13130.763     9106.377    9145.1881    9219.2521    8954.6909    121.87817   -24.898239   -80.118321    40.500002    40.500002    40.500002    37.448487   -3.3209383 
     191        0.191    295.44129   -13130.763    9113.7549     9151.953    9224.4164    8964.8952    126.05646   -32.117501   -88.390409    40.500002    40.500002    40.500002    37.515845     -3.32087 
     192        0.192    295.00752   -13130.763    9119.5884    9157.0911    9227.5216    8974.1524    129.27472   -39.880441   -96.227368    40.500002    40.500002    40.500002    37.569495    -3.320814 
     193        0.193    294.67214   -13130.763    9123.7933    9160.3776    9228.6182     8982.384    131.50065   -48.045111   -103.54336    40.500002    40.500002    40.500002    37.609181   -3.3207706 
     194        0.194    294.43784   -13130.763    9126.2735    9161.6376    9227.8106    8989.3724    132.75084   -56.435272   -110.10135    40.500002    40.500002    40.500002    37.634778   -3.3207403 
     195        0.195    294.30597   -13130.763    9127.0863     9161.015    9225.1306    8995.1132    133.15765   -65.013823   -115.86277    40.500002    40.500002    40.500002    37.646393   -3.3207233 
     196        0.196    294.27663   -13130.763    9126.2611    9158.5194    9220.6106    8999.6535    132.83521   -73.790721   -120.81493    40.500002    40.500002    40.500002    37.644307   -3.3207195 
     197        0.197    294.34865   -13130.763    9123.6849    9153.9119    9214.2598    9002.8831    131.80019   -82.729587    -125.0467    40.500002    40.500002    40.500002    37.628883   -3.3207288 
     198        0.198    294.51963   -13130.763    9119.3979    9147.1513    9206.1756    9004.8668    130.03576   -91.758627   -128.59143    40.500002    40.500002    40.500002    37.600568   -3.3207509 
     199        0.199    294.78599   -13130.763    9113.4729    9138.2794    9196.5072    9005.6321    127.45639   -100.94145   -131.42636    40.500002    40.500002    40.500002    37.559939   -3.3207854 
     200          0.2    297.57148   -13129.508    9126.0781    9147.7546     9205.395    9025.0847    123.81789   -110.16486   -133.35568    40.500002    40.500002    40.500002    37.507723   -3.3208316 
     201        0.201    298.01123   -13129.509    9116.9058    9134.6335    9193.0355    9023.0483    119.59052   -119.77266    -134.8536    40.500002    40.500002    40.500002    37.444895   -3.3208885 
     202        0.202     298.5217   -13129.509     9106.352    9119.7199    9179.6561    9019.6801    114.53157   -129.53113   -135.74099    40.500002    40.500002    40.500002    37.372986   -3.3209545 
     203        0.203    299.09546   -13129.509    9094.5879    9103.2374    9165.4832    9015.0432    108.56491   -139.45427     -136.019    40.500002    40.500002    40.500002    37.293019   -3.3210287 
     204        0.204    299.72449   -13129.509    9081.6307    9085.2555    9150.5674    9009.0693    101.64714   -149.51504   -135.67531    40.500002    40.500002    40.500002    37.205956   -3.3211101 
     205        0.205    300.40019    -13129.51    9067.6402    9065.9531     9135.138    9001.8297    93.850804   -159.66899   -134.65405    40.500002    40.500002    40.500002    37.112817   -3.3211975 
     206        0.206    301.11343    -13129.51    9052.7485    9045.5878    9119.3008     8993.357    85.249933   -169.77456   -133.03899    40.500002    40.500002    40.500002    37.014787   -3.3212897 
     207        0.207     301.8548    -13129.51    9037.1523    9024.4174    9103.2617    8983.7777    75.856498   -179.73784   -130.93315    40.500002    40.500002    40.500002    36.913131   -3.3213856 
     208        0.208    302.61472    -13129.51    9021.2484    9002.8542    9087.4388    8973.4522    65.768447   -189.48391   -128.36314    40.500002    40.500002    40.500002    36.809169   -3.3214839 
     209        0.209    303.38346   -13129.511    9005.3182    8981.0979    9072.1839     8962.673    55.105462   -198.87913   -125.50391    40.500002    40.500002    40.500002    36.704234   -3.3215833 
     210         0.21    302.07558   -13130.584    8972.3837    8942.2912    9040.4658     8934.394    44.180764   -208.18857   -122.56345    40.500002    40.500002    40.500002    36.599681   -3.3216826 
     211        0.211     302.8329   -13130.584    8957.3756    8921.3106    9027.1135    8923.7027    32.869651   -216.25534   -119.11334    40.500002    40.500002    40.500002    36.497039   -3.3217805 
     212        0.212    303.57595   -13130.585     8943.222    8901.0634     9015.188    8913.4146    21.420193   -223.47265   -115.27282    40.500002    40.500002    40.500002    36.397058   -3.3218766 
     213        0.213    304.29533   -13130.585    8930.0579    8881.6745      9004.88    8903.6191    9.8390549   -229.86082    -111.0293    40.500002    40.500002    40.500002    36.301101   -3.3219696 
     214        0.214    304.98209   -13130.585     8918.009    8863.2375    8996.2838    8894.5056   -1.8855317   -235.47632    -106.5284    40.500002    40.500002    40.500002     36.21051   -3.3220585 
     215        0.215     305.6279   -13130.585    8907.1816      8845.94    8989.4029    8886.2019   -13.669365    -240.3314   -101.79362    40.500002    40.500002    40.500002    36.126567    -3.322142 
     216        0.216      306.225   -13130.586    8897.6526    8829.8655    8984.2998    8878.7925   -25.609544   -244.47744   -96.746976    40.500002    40.500002    40.500002    36.050469   -3.3222192 
     217        0.217    306.76633   -13130.586    8889.3875    8814.8551     8980.953    8872.3543   -37.865193    -247.9852   -91.412923    40.500002    40.500002    40.500002    35.983298   -3.3222892 
     218        0.218     307.2458   -13130.586    8882.4678    8800.9336    8979.4926    8866.9772   -50.501214   -250.86576   -85.893706    40.500002    40.500002    40.500002    35.925983   -3.3223512 
     219        0.219    307.65829   -13130.586    8876.8406    8788.0896    8979.8565    8862.5757   -63.461668   -253.13605   -80.146704    40.500002    40.500002    40.500002    35.879277   -3.3224045 
     220         0.22    303.99987   -13132.654    8839.3038    8743.5882    8948.7968    8825.5264   -76.794972   -256.26581   -74.166613    40.500002    40.500002    40.500002    35.843769   -3.3224487 
     221        0.221    304.27146   -13132.654    8836.1789    8733.0085    8952.8873    8822.6409   -90.311353   -257.85923    -67.92079    40.500002    40.500002    40.500002    35.819406   -3.3224838 
     222        0.222    304.47933   -13132.654    8834.0379    8723.3958    8958.5739     8820.144   -104.07857   -259.17288   -61.580353    40.500002    40.500002    40.500002    35.805594   -3.3225107 
     223        0.223    304.62233   -13132.654    8832.8084    8714.8295    8965.6911    8817.9045   -117.93422   -260.22795   -55.259373    40.500002    40.500002    40.500002    35.802372   -3.3225291 
     224        0.224    304.70039   -13132.654    8832.4758    8707.3509    8974.1465    8815.9302   -131.83757   -261.04891   -49.108462    40.500002    40.500002    40.500002    35.809601   -3.3225392 
     225        0.225    304.71448   -13132.654    8833.0522    8700.9307    8983.8365    8814.3895   -145.65987   -261.68401   -43.273953    40.500002    40.500002    40.500002    35.826957    -3.322541 
     226        0.226    304.66648   -13132.654    8834.4873    8695.6768    8994.5341    8813.2509   -159.20295    -262.1776    -37.63469    40.500002    40.500002    40.500002    35.853915   -3.3225348 
     227        0.227    304.55915   -13132.654    8836.6149    8691.5388    9005.8626    8812.4432   -172.30951   -262.47863   -32.171789    40.500002    40.500002    40.500002    35.889823   -3.3225209 
     228        0.228    304.39601   -13132.653    8839.3207    8688.5019    9017.4719    8811.9883   -184.86706   -262.52784    -26.90757    40.500002    40.500002    40.500002     35.93391   -3.3224998 
     229        0.229    304.18127   -13132.653    8842.5062    8686.5429    9029.0736    8811.9021   -196.81813    -262.3462   -21.736693    40.500002    40.500002    40.500002    35.985311    -3.322472 
     230         0.23    301.95988   -13133.666    8829.7715    8669.4847    9024.0197    8795.8102   -208.19965   -262.55276   -16.495934    40.500002    40.500002    40.500002    36.043015   -3.3224382 
     231        0.231    301.66097   -13133.666     8833.645    8669.5708    9034.9268    8796.4375   -218.52003   -261.94447   -11.257501    40.500002    40.500002    40.500002    36.105515   -3.3223995 
     232        0.232    301.33273   -13133.666    8837.6588    8670.4518    9045.2116     8797.313   -227.98294    -261.0424   -6.0686731    40.500002    40.500002    40.500002    36.171635    -3.322357 
     233        0.233    300.98151   -13133.666    8841.8156    8672.1719    9054.7639     8798.511   -236.46948   -259.75236   -1.0231402    40.500002    40.500002    40.500002    36.240318   -3.3223116 
     234        0.234    300.61384   -13133.665    8846.0565    8674.8066    9063.4128      8799.95   -243.87724   -257.97266    3.8076457    40.500002    40.500002    40.500002    36.310465    -3.322264 
     235        0.235    300.23627   -13133.665    8850.3255    8678.3167    9070.9978    8801.6621   -250.19563   -255.75615    8.4589903    40.500002    40.500002    40.500002    36.381144   -3.3222152 
     236        0.236    299.85534   -13133.665    8854.5635    8682.6673    9077.4235    8803.5998   -255.47191   -253.08169    13.025547    40.500002    40.500002    40.500002    36.451465   -3.3221659 
     237        0.237    299.47754   -13133.665    8858.7979    8687.8915    9082.7334     8805.769   -259.68901    -249.8808    17.431079    40.500002    40.500002    40.500002    36.520555    -3.322117 
     238        0.238    299.10918   -13133.665    8862.9745    8694.0298    9086.8476    8808.0461   -262.92374   -246.13649    21.514209    40.500002    40.500002    40.500002     36.58762   -3.3220694 
     239        0.239    298.75637   -13133.664    8867.1721    8701.3351    9089.8068    8810.3743   -265.12071   -241.80098    25.198613    40.500002    40.500002    40.500002    36.651923   -3.3220237 
     240         0.24    299.21244   -13133.257     8877.893    8716.4341    9098.1314    8819.1134   -266.19715   -236.69837    28.413958    40.500002    40.500002    40.500002    36.712791   -3.3219809 
     241        0.241    298.90605   -13133.257    8881.9431    8726.0352    9098.6805    8821.1137   -266.34562   -231.17077    31.147585    40.500002    40.500002    40.500002    36.769818   -3.3219412 
     242        0.242    298.62901   -13133.257      8885.73    8736.6913    9097.9064    8822.5923   -265.43743    -225.1679    33.427753    40.500002    40.500002    40.500002    36.822515   -3.3219054 
     243        0.243    298.38593   -13133.257    8889.0897    8748.1742    9095.7711    8823.3236   -263.52635   -218.67053    35.307613    40.500002    40.500002    40.500002    36.870364   -3.3218739 
     244        0.244    298.18092   -13133.257    8892.0309    8760.4386    9092.3364    8823.3176   -260.55563   -211.47097    36.747264    40.500002    40.500002    40.500002    36.912994   -3.3218474 
     245        0.245    298.01772   -13133.256    8894.5752     8773.435    9087.6935    8822.5972   -256.47837   -203.53165    37.807508    40.500002    40.500002    40.500002    36.950034   -3.3218263 
     246        0.246    297.89963   -13133.256    8896.5955    8787.0924    9081.7547    8820.9395   -251.38949   -194.92814    38.454127    40.500002    40.500002    40.500002    36.981098    -3.321811 
     247        0.247     297.8293   -13133.256    8897.9863    8801.3629    9074.3785    8818.2176   -245.36151   -185.82958    38.787266    40.500002    40.500002    40.500002    37.005929   -3.3218019 
     248        0.248    297.80876   -13133.256    8898.5304    8816.1035    9065.2314    8814.2563   -238.45851   -176.22836    38.933614    40.500002    40.500002    40.500002    37.024317   -3.3217993 
     249        0.249    297.83952   -13133.256    8898.0195    8831.0102    9054.1243    8808.9241   -230.86556   -166.16389     38.96783    40.500002    40.500002    40.500002    37.036018   -3.3218032 
     250         0.25    298.96122   -13132.719    8904.9206    8854.6033     9049.658    8810.5004   -222.77924   -155.76679    38.983071    40.500002    40.500002    40.500002    37.040826   -3.3218139 
     251        0.251    299.09523   -13132.719    8901.9615    8868.8439    9035.0027     8802.038   -214.17854    -145.1888    38.903685    40.500002    40.500002    40.500002    37.038732   -3.3218313 
     252        0.252    299.27836   -13132.719     8897.996    8882.6939    9019.1285    8792.1657   -205.13207   -134.41866    38.860486    40.500002    40.500002    40.500002    37.029782   -3.3218549 
     253        0.253    299.50985   -13132.719    8893.2605    8896.1175    9002.4828    8781.1812   -195.83319   -123.44506    38.747144    40.500002    40.500002    40.500002    37.013962   -3.3218849 
     254        0.254     299.7884   -13132.719    8887.7426    8908.8512    8985.1674    8769.2091   -186.51994    -112.2576    38.603404    40.500002    40.500002    40.500002    36.991315   -3.3219209 
     255        0.255    300.11196    -13132.72    8881.4695    8920.6953     8967.268    8756.4453   -177.33178   -100.78893    38.621372    40.500002    40.500002    40.500002    36.962022   -3.3219627 
     256        0.256    300.47772    -13132.72    8874.4953    8931.5605    8948.8815    8743.0439   -168.31973    -89.07944    38.910659    40.500002    40.500002    40.500002    36.926365     -3.32201 
     257        0.257    300.88213    -13132.72     8866.686    8941.1558    8929.9134    8728.9888   -159.51664   -77.315985    39.560199    40.500002    40.500002    40.500002    36.884655   -3.3220623 
     258        0.258    301.32103    -13132.72    8858.1192    8949.3921    8910.5789    8714.3865   -151.11672   -65.669468    40.440936    40.500002    40.500002    40.500002    36.837352    -3.322119 
     259        0.259    301.78985    -13132.72    8848.8445    8956.2259    8890.9763    8699.3312   -143.27029   -54.194095    41.379915    40.500002    40.500002    40.500002    36.785002   -3.3221797 
     260         0.26    301.14181    -13133.31    8829.5021    8951.9581    8861.7691    8674.7791   -135.79032   -42.944048    42.246772    40.500002    40.500002    40.500002    36.728208   -3.3222435 
     261        0.261    301.65595   -13133.311      8819.36    8956.4963     8842.217    8659.3667   -129.20983   -32.283586    43.208638    40.500002    40.500002    40.500002    36.667579     -3.32231 
     262        0.262    302.18738   -13133.311    8809.1032    8960.1017    8823.0864    8644.1215   -123.44365   -22.179395    44.173915    40.500002    40.500002    40.500002    36.603647   -3.3223787 
     263        0.263    302.73007   -13133.311    8798.9996    8962.9673    8804.7086    8629.3229   -118.65467   -12.699754     45.16339    40.500002    40.500002    40.500002    36.537247   -3.3224489 
     264        0.264    303.27775   -13133.311    8789.2461    8965.2067    8787.3259    8615.2059   -114.93294   -4.0053639    46.208622    40.500002    40.500002    40.500002    36.469221   -3.3225197 
     265        0.265    303.82396   -13133.311    8780.1047    8967.0132    8771.1896    8602.1112   -112.49553     3.995332    47.387367    40.500002    40.500002    40.500002     36.40047   -3.3225904 
     266        0.266    304.36209   -13133.312    8771.8341    8968.6268    8756.5859    8590.2897   -111.36464    11.317267    48.736254    40.500002    40.500002    40.500002    36.331983     -3.32266 
     267        0.267    304.88555   -13133.312    8764.5074    8970.1267    8743.6241    8579.7713   -111.52528    18.023351    50.327661    40.500002    40.500002    40.500002     36.26473   -3.3227277 
     268        0.268    305.38785   -13133.312    8758.1381    8971.5402     8732.307     8570.567   -112.94909    24.026119    52.282996    40.500002    40.500002    40.500002    36.199646   -3.3227926 
     269        0.269    305.86263   -13133.312    8752.8228    8973.0156    8722.6311    8562.8215   -115.62572    29.227656    54.632206    40.500002    40.500002    40.500002    36.137694    -3.322854 
     270         0.27    303.15194   -13134.942    8722.3403    8947.5651    8688.2188    8531.2369   -118.74763     34.06703    57.009346    40.500002    40.500002    40.500002    36.079731   -3.3229111 
     271        0.271    303.55668   -13134.942    8719.1484    8949.1706    8681.7122    8526.5622   -123.59969     37.82681    59.786444    40.500002    40.500002    40.500002    36.026335   -3.3229634 
     272        0.272    303.92679   -13134.942    8716.9125    8950.7637    8676.8399    8523.1338   -129.36084    40.795218    62.810349    40.500002    40.500002    40.500002    35.977399   -3.3230113 
     273        0.273    304.25753   -13134.942    8715.5351    8952.2425    8673.6351    8520.7276   -135.85981    42.766982    66.041862    40.500002    40.500002    40.500002    35.933565   -3.3230541 
     274        0.274    304.54465   -13134.942    8714.8734    8953.4738    8672.0037    8519.1426   -142.86103    43.788075    69.448778    40.500002    40.500002    40.500002    35.895416   -3.3230912 
     275        0.275    304.78439   -13134.942    8714.8216    8954.4121     8671.842    8518.2106   -150.22507    43.932509     73.07268    40.500002    40.500002    40.500002    35.863424   -3.3231222 
     276        0.276    304.97352   -13134.942    8715.3537    8955.0511    8673.0658    8517.9441   -157.89376    43.319002    76.799181    40.500002    40.500002    40.500002    35.838028   -3.3231467 
     277        0.277    305.10939   -13134.943     8716.442     8955.356    8675.6106    8518.3593    -165.8196     42.08063    80.674018    40.500002    40.500002    40.500002     35.81955   -3.3231643 
     278        0.278    305.19006   -13134.943    8718.0899    8955.2645    8679.5614    8519.4437   -173.99802     40.23563    84.696532    40.500002    40.500002    40.500002    35.808179   -3.3231747 
     279        0.279    305.21431   -13134.943      8720.53    8954.9769    8685.1823    8521.4309   -182.62352    37.728827    88.770357    40.500002    40.500002    40.500002    35.804123   -3.3231778 
     280         0.28    302.59079   -13136.282    8702.3556    8932.6083    8670.9101    8503.5484   -191.14235    34.852313    92.708193    40.500002    40.500002    40.500002    35.807452   -3.3231736 
     281        0.281    302.50545   -13136.282    8706.4737     8932.181    8679.7551     8507.485    -200.3174    31.125532    96.569598    40.500002    40.500002    40.500002    35.817579   -3.3231626 
     282        0.282    302.37188   -13136.282    8711.2889    8931.6293    8689.7766    8512.4609   -209.57629     26.90426    100.38746    40.500002    40.500002    40.500002    35.833929   -3.3231453 
     283        0.283    302.19127   -13136.282    8716.6632    8930.7074     8700.913    8518.3692   -218.77037     22.29074    104.13573    40.500002    40.500002    40.500002    35.856215    -3.323122 
     284        0.284    301.96535   -13136.282    8722.3816    8929.2048    8712.9312    8525.0089   -227.81978    17.386644    107.63376    40.500002    40.500002    40.500002     35.88409   -3.3230927 
     285        0.285    301.69639   -13136.282      8728.48    8927.2578    8725.7125    8532.4697   -236.67117    12.162115    110.74693    40.500002    40.500002    40.500002    35.917154    -3.323058 
     286        0.286     301.3871   -13136.281    8735.0179    8924.9999    8739.2687    8540.7851   -245.26178    6.6802719     113.4267    40.500002    40.500002    40.500002    35.954973    -3.323018 
     287        0.287    301.04058   -13136.281     8741.971    8922.5321    8753.4944    8549.8864   -253.50253    0.9051298    115.75068    40.500002    40.500002    40.500002    35.997109   -3.3229732 
     288        0.288    300.66033   -13136.281    8749.2756    8919.9314    8768.1456    8559.7498   -261.32657   -5.1475677    117.67493    40.500002    40.500002    40.500002    36.043041    -3.322924 
     289        0.289    300.25023   -13136.281    8757.0092    8917.2605      8783.19     8570.577   -268.71963   -11.506137    119.04722    40.500002    40.500002    40.500002    36.092197    -3.322871 
     290         0.29    299.81446   -13136.281    8765.1274    8914.5951    8798.4608    8582.3264   -275.71766   -18.151497    119.78898    40.500002    40.500002    40.500002    36.143954   -3.3228146 
     291        0.291    299.35738   -13136.281    8773.3525    8911.7778    8813.6534    8594.6261   -282.32955   -25.026036    119.93112    40.500002    40.500002    40.500002    36.197692   -3.3227555 
     292        0.292    298.88348   -13136.281    8781.5555    8908.7444     8828.554    8607.3681   -288.48929   -32.005662    119.47178    40.500002    40.500002    40.500002    36.252809   -3.3226942 
     293        0.293    298.39731   -13136.281    8789.6728    8905.4683    8843.0595    8620.4905   -294.21713   -39.016719    118.33521    40.500002    40.500002    40.500002    36.308728   -3.3226314 
     294        0.294    297.90347    -13136.28    8797.6519    8901.9163    8857.1253     8633.914   -299.50856   -46.151518     116.6269    40.500002    40.500002    40.500002    36.364834   -3.3225675 
     295        0.295    297.40651    -13136.28    8805.3956    8897.9738    8870.6798    8647.5333   -304.35827   -53.275062    114.42984    40.500002    40.500002    40.500002    36.420558   -3.3225033 
     296        0.296    296.91096    -13136.28    8812.7981    8893.5648    8883.5303    8661.2993   -308.82166   -60.230389    111.87019    40.500002    40.500002    40.500002    36.475312   -3.3224392 
     297        0.297    296.42129    -13136.28    8819.6408    8888.4345    8895.4536    8675.0344   -313.00685   -66.975795    109.06245    40.500002    40.500002    40.500002    36.528513   -3.3223759 
     298        0.298    295.94186    -13136.28     8825.761    8882.4445    8906.1642    8688.6742   -317.04659   -73.500033     106.1947    40.500002    40.500002    40.500002    36.579653   -3.3223139 
     299        0.299    295.47678    -13136.28    8831.2914    8875.7659    8915.7062    8702.4019   -321.02136   -79.720511    103.31425    40.500002    40.500002    40.500002    36.628349   -3.3222538 
     300          0.3    297.51498   -13134.995    8856.8094    8889.4707    8944.8756    8736.0818   -324.76184   -85.993214    100.52649    40.500002    40.500002    40.500002    36.674121    -3.322196 
     301        0.301    297.08439   -13134.995    8861.1332    8881.7022    8951.8393    8749.8582   -328.40446   -91.525749    97.795503    40.500002    40.500002    40.500002    36.717176   -3.3221403 
     302        0.302    296.67144   -13134.995    8865.1557    8873.8539    8957.6891    8763.9241   -331.83538   -96.707048    95.163355    40.500002    40.500002    40.500002    36.757424    -3.322087 
     303        0.303    296.27925   -13134.995    8869.0714    8866.2085    8962.6606    8778.3451   -335.13774   -101.64917    92.672469    40.500002    40.500002    40.500002    36.794591   -3.3220362 
     304        0.304    295.91069   -13134.995    8872.8508    8858.7356    8966.8236    8792.9932   -338.30899   -106.37194     90.35844    40.500002    40.500002    40.500002    36.828433   -3.3219886 
     305        0.305     295.5683   -13134.995    8876.3202    8851.2633    8970.0228    8807.6746   -341.33124   -110.82406    88.399264    40.500002    40.500002    40.500002    36.858746   -3.3219443 
     306        0.306    295.25431   -13134.995    8879.4133    8843.7805    8972.1617    8822.2977   -344.09439   -115.12458    86.812991    40.500002    40.500002    40.500002    36.885427   -3.3219038 
     307        0.307    294.97057   -13134.995    8882.2061    8836.4402    8973.3849    8836.7931   -346.38206   -119.38771     85.65614    40.500002    40.500002    40.500002    36.908463   -3.3218671 
     308        0.308    294.71846   -13134.995    8884.8752    8829.5876     8973.862    8851.1761   -348.30665   -123.42505    84.823647    40.500002    40.500002    40.500002    36.927987   -3.3218345 
     309        0.309    294.49893   -13134.995    8887.5193    8823.3911    8973.7467    8865.4201   -349.89063   -127.16473    84.230281    40.500002    40.500002    40.500002    36.944156   -3.3218061 
     310         0.31     297.1563   -13133.525    8913.8254    8841.8083    8997.1203    8902.5475   -350.83369   -130.96089    84.072438    40.500002    40.500002    40.500002     36.95721    -3.321782 
     311        0.311    296.99824   -13133.525    8916.7054    8837.1001    8996.2591    8916.7571   -351.69796   -134.12961    83.985476    40.500002    40.500002    40.500002    36.967909   -3.3217616 
     312        0.312     296.8651   -13133.525    8919.7272    8833.2238    8995.0686     8930.889   -352.15742   -137.01962    84.305882    40.500002    40.500002    40.500002    36.976858   -3.3217444 
     313        0.313    296.75704   -13133.525    8922.8001    8830.0729    8993.5414     8944.786   -352.15714   -139.48531    85.016417    40.500002    40.500002    40.500002    36.984272   -3.3217304 
     314        0.314     296.6741   -13133.525    8925.7353    8827.4722    8991.4184    8958.3154    -351.5299   -141.39059    86.109609    40.500002    40.500002    40.500002    36.990311   -3.3217197 
     315        0.315    296.61631   -13133.525    8928.3149    8825.1923    8988.4432    8971.3091   -350.19263   -142.66371    87.531574    40.500002    40.500002    40.500002    36.995071   -3.3217123 
     316        0.316    296.58355   -13133.525    8930.3841    8823.0357    8984.5669    8983.5497   -348.07218   -143.32714    89.354789    40.500002    40.500002    40.500002     36.99864    -3.321708 
     317        0.317    296.57563   -13133.525    8931.9912    8821.0507     8979.921     8995.002   -345.15263     -143.332    91.560917    40.500002    40.500002    40.500002    37.001077    -3.321707 
     318        0.318     296.5923   -13133.525    8933.2843    8819.4109    8974.6313    9005.8105   -341.38495   -142.67404    93.940532    40.500002    40.500002    40.500002    37.002376   -3.3217092 
     319        0.319    296.63323   -13133.525    8934.2024    8817.9581    8968.6861     9015.963   -336.67667   -141.39125    96.278079    40.500002    40.500002    40.500002    37.002452   -3.3217145 
     320         0.32      298.349   -13132.671    8948.3456    8830.2729    8975.8107    9038.9532   -330.93602    -139.5694    98.781499    40.500002    40.500002    40.500002    37.001206   -3.3217228 
     321        0.321    298.43494   -13132.671    8948.3278    8828.6943     8968.451     9047.838   -324.44857   -137.14232    101.06625    40.500002    40.500002    40.500002    36.998807    -3.321734 
     322        0.322    298.53894   -13132.671    8947.8056    8827.2151    8960.2566     9055.945    -317.1321   -134.16286    103.22521    40.500002    40.500002    40.500002    36.995324   -3.3217474 
     323        0.323    298.66057   -13132.671    8946.6712    8825.7803    8951.1184    9063.1149   -309.13844   -130.67795    105.18903    40.500002    40.500002    40.500002    36.990579   -3.3217631 
     324        0.324    298.79914   -13132.671    8945.0204    8824.5112    8941.2452    9069.3047   -300.68232   -126.63153     106.8867    40.500002    40.500002    40.500002    36.984487    -3.321781 
     325        0.325     298.9539   -13132.671     8942.893    8823.3109    8930.8514    9074.5166   -291.82446   -121.93452    108.17877    40.500002    40.500002    40.500002    36.976885    -3.321801 
     326        0.326     299.1241   -13132.672    8940.3135    8822.1742    8920.0821    9078.6842   -282.65424    -116.6431    108.99688    40.500002    40.500002    40.500002    36.967512    -3.321823 
     327        0.327    299.30885   -13132.672    8937.3788    8821.1203    8909.1094    9081.9067   -273.30938   -110.91582    109.21549    40.500002    40.500002    40.500002    36.956083   -3.3218469 
     328        0.328    299.50708   -13132.672    8934.1165    8820.0249    8898.0778    9084.2469   -263.92874   -104.86983    108.73792    40.500002    40.500002    40.500002    36.942352   -3.3218725 
     329        0.329    299.71758   -13132.672    8930.5427     8818.847    8887.0869    9085.6941   -254.59067   -98.453405    107.47281    40.500002    40.500002    40.500002    36.926116   -3.3218998 
     330         0.33    299.93888   -13132.672    8926.7048    8817.6982    8876.2045    9086.2118   -245.29167   -91.726583    105.41238    40.500002    40.500002    40.500002    36.907189   -3.3219284 
     331        0.331    300.16926   -13132.672    8922.6147    8816.5524    8865.5177    9085.7741   -236.02414    -84.91657    102.64509    40.500002    40.500002    40.500002    36.885483   -3.3219582 
     332        0.332    300.40662   -13132.672    8918.3416    8815.4935     8855.151    9084.3803   -226.79012    -78.20616     99.24864    40.500002    40.500002    40.500002    36.861063   -3.3219889 
     333        0.333    300.64862   -13132.672    8913.8954    8814.5288    8845.1787    9081.9787   -217.75521   -71.823572    95.268656    40.500002    40.500002    40.500002    36.834038   -3.3220201 
     334        0.334    300.89267   -13132.672    8909.3447    8813.7683    8835.6643    9078.6014   -209.00369   -65.996582    90.635391    40.500002    40.500002    40.500002    36.804615   -3.3220517 
     335        0.335    301.13581   -13132.672    8904.6752    8813.3176    8826.4828     9074.225   -200.60062   -60.854701     85.48072    40.500002    40.500002    40.500002    36.773125   -3.3220832 
     336        0.336    301.37479   -13132.672    8899.9695    8813.3154    8817.8136    9068.7794   -192.54891   -56.296778    79.967443    40.500002    40.500002    40.500002    36.740038   -3.3221141 
     337        0.337    301.60611   -13132.672    8895.3002     8813.869     8809.753    9062.2785   -184.86036   -52.258017    74.205984    40.500002    40.500002    40.500002    36.705931    -3.322144 
     338        0.338    301.82609   -13132.672    8890.7327     8815.017    8802.3425    9054.8387    -177.6365   -48.628745    68.273602    40.500002    40.500002    40.500002    36.671421   -3.3221725 
     339        0.339     302.0309   -13132.673    8886.2439    8816.7256    8795.5816    9046.4246   -170.88724   -45.264591    62.330014    40.500002    40.500002    40.500002    36.637213   -3.3221989 
     340         0.34    301.10838   -13133.246    8872.5741    8809.6461    8780.1563    9027.9198   -164.40014   -42.231804    56.195991    40.500002    40.500002    40.500002    36.604075    -3.322223 
     341        0.341    301.27298   -13133.246    8868.2105     8812.237    8774.5531    9017.8413   -158.48812   -39.398865    50.498995    40.500002    40.500002    40.500002    36.572767   -3.3222443 
     342        0.342     301.4147   -13133.246    8864.0093    8815.0621    8769.5831    9007.3826   -152.87533   -36.861447    45.060398    40.500002    40.500002    40.500002    36.543956   -3.3222626 
     343        0.343    301.52994   -13133.246     8860.023    8818.0246    8765.2484     8996.796   -147.44166   -34.601926    40.010046    40.500002    40.500002    40.500002    36.518545   -3.3222776 
     344        0.344    301.61541   -13133.246     8856.307    8821.0167    8761.6674     8986.237   -142.17447   -32.592588    35.391523    40.500002    40.500002    40.500002    36.497406   -3.3222886 
     345        0.345    301.66834   -13133.246     8852.775    8823.8154    8758.7941    8975.7156   -137.03147   -30.888131    31.167216    40.500002    40.500002    40.500002    36.481245   -3.3222955 
     346        0.346    301.68641   -13133.246    8849.4453    8826.1733    8756.7582    8965.4043   -131.95619   -29.575947    27.492626    40.500002    40.500002    40.500002    36.470704   -3.3222978 
     347        0.347    301.66791   -13133.246    8846.3865    8828.0985    8755.6657    8955.3954    -127.0004   -28.822575    24.517784    40.500002    40.500002    40.500002    36.466301   -3.3222955 
     348        0.348    301.61177   -13133.246    8843.4562    8829.4599    8755.2772    8945.6314   -122.14255   -28.602327    22.231498    40.500002    40.500002    40.500002    36.468364   -3.3222882 
     349        0.349    301.51767   -13133.246    8840.8044    8830.4861    8755.6738    8936.2534   -117.47048   -28.998322    20.688149    40.500002    40.500002    40.500002    36.477163   -3.3222761 
     350         0.35    300.69296   -13133.604    8832.8232    8825.5192    8751.2532    8921.6971   -112.85535   -29.948442    19.613449    40.500002    40.500002    40.500002    36.492832    -3.322259 
     351        0.351    300.52597   -13133.604    8831.0585    8826.1818    8753.6553    8913.3383    -108.7088   -31.265417    19.245029    40.500002    40.500002    40.500002    36.515124   -3.3222374 
     352        0.352     300.3265   -13133.604    8829.7309    8826.4549    8757.1152    8905.6226   -104.78449   -32.813129    19.378855    40.500002    40.500002    40.500002    36.543626   -3.3222116 
     353        0.353    300.09708   -13133.604    8828.9385    8826.3836    8761.7005    8898.7313   -101.05001   -34.488904    20.159557    40.500002    40.500002    40.500002    36.577928    -3.322182 
     354        0.354     299.8408   -13133.604    8828.5957    8825.9046     8767.297    8892.5856   -97.577228   -36.361965    21.701599    40.500002    40.500002    40.500002    36.617535   -3.3221488 
     355        0.355    299.56133   -13133.604    8828.5964    8824.8928    8773.7318    8887.1646   -94.304101     -38.4295    23.992564    40.500002    40.500002    40.500002    36.661779   -3.3221127 
     356        0.356    299.26282   -13133.604    8828.8338     8823.184    8780.8661    8882.4512   -91.131924   -40.779787    26.950251    40.500002    40.500002    40.500002    36.709858   -3.3220741 
     357        0.357    298.94975   -13133.604    8829.3035     8820.742    8788.7306    8878.4377   -87.823351   -43.327359    30.472744    40.500002    40.500002    40.500002    36.760862   -3.3220336 
     358        0.358    298.62678   -13133.604    8830.0237    8817.7051    8797.2911     8875.075   -84.125469    -46.01786    34.322928    40.500002    40.500002    40.500002     36.81389   -3.3219918 
     359        0.359    298.29873   -13133.603    8830.8437    8813.9812    8806.2462    8872.3038   -79.967463   -48.758512    38.434725    40.500002    40.500002    40.500002    36.867972   -3.3219494 
     360         0.36    298.98523   -13133.079     8840.094    8818.1213    8823.8224    8878.3382   -75.840144   -51.455148    42.929469    40.500002    40.500002    40.500002    36.922235   -3.3219069 
     361        0.361    298.65952   -13133.079    8841.0035    8813.0203    8833.0538    8876.9362    -71.00638   -54.268482    47.381028    40.500002    40.500002    40.500002    36.976088   -3.3218648 
     362        0.362    298.34022   -13133.078    8841.9941    8807.3493    8842.3003    8876.3326   -65.822937   -57.024668     51.92716    40.500002    40.500002    40.500002    37.028758   -3.3218235 
     363        0.363    298.03205   -13133.078    8843.0532    8801.1639    8851.6206    8876.3751    -60.30219     -59.6287    56.619587    40.500002    40.500002    40.500002    37.079458   -3.3217836 
     364        0.364    297.73948   -13133.078    8844.0754    8794.5329    8860.8594    8876.8338   -54.374497   -62.011981    61.369677    40.500002    40.500002    40.500002    37.127445   -3.3217458 
     365        0.365    297.46666   -13133.078    8844.9859    8787.5207    8869.8697    8877.5674   -48.256137   -64.173597    66.049738    40.500002    40.500002    40.500002    37.172141   -3.3217105 
     366        0.366     297.2173   -13133.078    8845.7744    8780.2626     8878.562    8878.4985   -42.103184   -66.170181    70.520635    40.500002    40.500002    40.500002     37.21312   -3.3216782 
     367        0.367    296.99471   -13133.078    8846.3236    8772.8196    8886.7384     8879.413    -35.80245   -67.895129    74.688583    40.500002    40.500002    40.500002    37.249937   -3.3216495 
     368        0.368    296.80177   -13133.078    8846.6236    8765.4033    8894.1863    8880.2812   -29.301238   -69.196686    78.522355    40.500002    40.500002    40.500002    37.282228   -3.3216245 
     369        0.369    296.64095   -13133.078    8846.6818    8758.1178    8900.8491    8881.0784   -22.717496    -70.08019    82.039938    40.500002    40.500002    40.500002    37.309691   -3.3216037 
     370         0.37    298.25715   -13132.177    8861.0393    8766.0803    8921.2228    8895.8148   -16.749924   -70.519009    85.396642    40.500002    40.500002    40.500002    37.332145   -3.3215873 
     371        0.371    298.16325   -13132.177    8860.7348    8759.1865    8926.5072    8896.5108   -10.228201   -70.746249    88.172148    40.500002    40.500002    40.500002    37.349828   -3.3215752 
     372        0.372    298.10091   -13132.177    8860.3265    8752.6884    8931.0831    8897.2079   -3.8765064   -70.628281    90.663345    40.500002    40.500002    40.500002    37.362891   -3.3215671 
     373        0.373    298.07099   -13132.177    8859.6439    8746.5165    8934.6522    8897.7629    2.2198496   -70.128097    92.815132    40.500002    40.500002    40.500002     37.37126   -3.3215633 
     374        0.374    298.07391   -13132.177    8858.7152    8740.8642    8937.1422    8898.1391    8.1332928    -69.20508    94.676058    40.500002    40.500002    40.500002    37.374998   -3.3215636 
     375        0.375    298.10955   -13132.177    8857.6011    8735.8208    8938.5672    8898.4153    13.939432    -67.81742    96.323648    40.500002    40.500002    40.500002    37.374228   -3.3215682 
[...]
     913        0.913    299.34961    -13130.97    9135.2672    9214.7184    9246.8945    8944.1886    6.2290721    -33.28494    58.136385    40.500002    40.500002    40.500002    37.759559   -3.3214267 
     914        0.914    299.06092   -13130.969    9139.8931    9206.9924    9262.1328    8950.5541    1.0077794   -37.350684    70.552075    40.500002    40.500002    40.500002    37.786967   -3.3213894 
     915        0.915    298.76276   -13130.969    9144.7321    9199.3497    9276.7444    8958.1022   -4.1546033    -40.77234    82.377021    40.500002    40.500002    40.500002    37.815031   -3.3213508 
     916        0.916    298.45808   -13130.969    9149.4877    9191.5309    9290.3611    8966.5712   -9.1765959   -43.737704    93.413133    40.500002    40.500002    40.500002    37.843287   -3.3213114 
     917        0.917    298.14982   -13130.969    9153.9928    9183.4991    9302.8773    8975.6019   -14.037985   -46.194111    103.56375    40.500002    40.500002    40.500002    37.871227   -3.3212715 
     918        0.918    297.84085   -13130.969    9158.1992    9175.4057    9314.3726    8984.8193   -18.517774   -48.168849    112.91385    40.500002    40.500002    40.500002    37.898337   -3.3212316 
     919        0.919    297.53382   -13130.969    9162.0031    9167.2939    9324.7609    8993.9546   -22.559212   -49.690286    121.65295    40.500002    40.500002    40.500002    37.924134   -3.3211919 
     920         0.92     298.6156   -13130.253    9176.8119    9170.6114    9345.6201    9014.2041   -26.246791   -50.835493    129.99444    40.500002    40.500002    40.500002    37.948254   -3.3211528 
     921        0.921    298.31659   -13130.253    9179.7193    9162.3846    9353.8698    9022.9034   -29.510053    -51.46279    137.77994    40.500002    40.500002    40.500002    37.970624   -3.3211141 
     922        0.922    298.02157   -13130.253    9182.2225    9154.0818    9361.1476    9031.4381   -32.261875    -51.65641    145.07444    40.500002    40.500002    40.500002    37.991103    -3.321076 
     923        0.923    297.73234   -13130.253    9184.2136    9145.6137    9367.4355    9039.5915   -34.372348   -51.414495    151.64773    40.500002    40.500002    40.500002    38.009409   -3.3210386 
     924        0.924     297.4505   -13130.253    9185.6952    9137.1045    9372.8222    9047.1589   -35.915202   -50.937787    157.54266    40.500002    40.500002    40.500002    38.025339   -3.3210022 
     925        0.925    297.17736   -13130.253    9186.7403    9128.6393    9377.3699    9054.2118   -36.855035   -50.317481    162.84088    40.500002    40.500002    40.500002    38.038727   -3.3209669 
     926        0.926    296.91404   -13130.253    9187.4558    9120.3692    9381.2119    9060.7865   -37.106578   -49.552934    167.55084    40.500002    40.500002    40.500002    38.049419   -3.3209328 
     927        0.927    296.66153   -13130.253    9188.0876    9112.5337    9384.6471     9067.082   -36.721154    -48.77738    171.65121    40.500002    40.500002    40.500002    38.057341   -3.3209002 
     928        0.928    296.42058   -13130.253    9188.7729    9105.2812     9387.849    9073.1887   -35.659386   -48.057051    175.13455    40.500002    40.500002    40.500002    38.062558    -3.320869 
     929        0.929    296.19167   -13130.253    9189.4722    9098.7368    9390.7322    9078.9476   -33.744791   -47.401315    177.85256    40.500002    40.500002    40.500002      38.0652   -3.3208395 
     930         0.93    297.98753   -13129.213    9206.8879    9109.3848    9410.1396    9101.1392    -30.79534   -46.908444    179.70712    40.500002    40.500002    40.500002    38.065389   -3.3208115 
     931        0.931    297.77912   -13129.213    9207.4605    9104.1785    9412.2787    9105.9243   -26.872131   -46.560719    180.61882    40.500002    40.500002    40.500002    38.063539   -3.3207845 
     932        0.932    297.57591   -13129.213    9207.9348    9099.6715    9413.9691    9110.1638   -21.894958    -46.51206    180.54621    40.500002    40.500002    40.500002    38.060214   -3.3207583 
     933        0.933    297.37728   -13129.213    9208.4575    9096.2116    9415.2473    9113.9135   -15.958862   -46.844319    179.59107    40.500002    40.500002    40.500002    38.055754   -3.3207326 
     934        0.934    297.18245   -13129.213    9209.1847    9094.1976    9416.0759    9117.2807   -9.2298054   -47.742751    177.80538    40.500002    40.500002    40.500002    38.050617   -3.3207075 
     935        0.935    296.99036   -13129.213    9210.2482    9093.7798    9416.5895    9120.3754   -1.8264639   -49.137271    175.17714    40.500002    40.500002    40.500002    38.045341   -3.3206826 
     936        0.936     296.7999   -13129.213    9211.5983    9094.9753    9416.7998    9123.0199    6.1398381    -50.88732    171.63988    40.500002    40.500002    40.500002    38.040404    -3.320658 
     937        0.937    296.61004   -13129.213    9213.2345    9097.8085    9416.7335    9125.1616    14.542093   -52.892437    167.03397    40.500002    40.500002    40.500002    38.036293   -3.3206335 
     938        0.938    296.42001   -13129.213    9215.2333    9102.2089    9416.5899    9126.9012    23.187094   -55.078853    161.32514    40.500002    40.500002    40.500002    38.033419    -3.320609 
     939        0.939    296.22926   -13129.213    9217.6813    9108.0756    9416.5027    9128.4657    31.929922   -57.504862    154.67297    40.500002    40.500002    40.500002    38.032222   -3.3205843 
     940         0.94    298.01866   -13128.189    9237.0408    9131.4377    9432.9768    9146.7077    40.711132   -60.190584    147.22349    40.500002    40.500002    40.500002     38.03311   -3.3205595 
     941        0.941    297.82125   -13128.189    9240.3852    9139.8089    9433.2321    9148.1147    49.281184   -63.313415    139.41646    40.500002    40.500002    40.500002    38.036704    -3.320534 
     942        0.942    297.61566   -13128.189    9244.0816     9149.503    9433.4834    9149.2583    57.644226   -66.763579    131.14205    40.500002    40.500002    40.500002    38.043505   -3.3205074 
     943        0.943    297.40222   -13128.189    9248.1091     9160.488     9433.705    9150.1342    65.725462   -70.411143    122.48981    40.500002    40.500002    40.500002    38.053618   -3.3204798 
     944        0.944    297.18173   -13128.189    9252.4238    9172.6534    9433.8117    9150.8062    73.465222   -74.240455    113.53777    40.500002    40.500002    40.500002    38.067084   -3.3204513 
     945        0.945    296.95538   -13128.189     9256.939    9185.8396    9433.7801    9151.1972    80.922518   -78.149323    104.31298    40.500002    40.500002    40.500002    38.083798   -3.3204221 
     946        0.946    296.72479   -13128.189    9261.7611     9199.962    9433.7667    9151.5546    88.077769   -82.105295    94.906285    40.500002    40.500002    40.500002     38.10367   -3.3203923 
     947        0.947    296.49199   -13128.189    9266.9302    9214.9944    9433.8454    9151.9507    94.838056   -85.960393    85.392723    40.500002    40.500002    40.500002    38.126506   -3.3203622 
     948        0.948    296.25931   -13128.189    9272.4477    9230.7873    9434.0763    9152.4793    101.15491    -89.53361    75.768727    40.500002    40.500002    40.500002    38.151992   -3.3203321 
     949        0.949    296.02937   -13128.188    9278.3152     9247.187     9434.543    9153.2155    107.06418   -92.757437    66.154297    40.500002    40.500002    40.500002     38.17979   -3.3203023 
     950         0.95    297.90253   -13127.104     9301.969    9281.5689     9452.721    9171.6171    112.70833   -95.365845    56.603574    40.500002    40.500002    40.500002    38.209492   -3.3202733 
     951        0.951    297.68262   -13127.104    9308.5043    9298.8453    9453.9698    9172.6977    117.75953   -98.014592    47.588436    40.500002    40.500002    40.500002    38.241104   -3.3202449 
     952        0.952    297.46769   -13127.104    9315.1362    9316.1036    9455.4101    9173.8948    122.53641   -100.40347    39.033425    40.500002    40.500002    40.500002    38.274268   -3.3202171 
     953        0.953    297.26119   -13127.104    9321.7863    9333.2235    9456.9714    9175.1639    127.08314   -102.45256    30.873169    40.500002    40.500002    40.500002    38.308456   -3.3201904 
     954        0.954    297.06657   -13127.104    9328.2748    9349.8983    9458.4687    9176.4575    131.33714   -104.04729    23.148714    40.500002    40.500002    40.500002    38.343222   -3.3201652 
     955        0.955    296.88731   -13127.104    9334.4774    9365.9266    9459.6084    9177.8972    135.36674    -105.0058     15.79253    40.500002    40.500002    40.500002    38.378162    -3.320142 
     956        0.956     296.7268   -13127.103    9340.2522    9381.1812    9460.1726    9179.4029    139.31885     -105.246    8.7537553    40.500002    40.500002    40.500002    38.412785   -3.3201212 
     957        0.957    296.58838   -13127.103    9345.4685    9395.7093    9460.0374    9180.6587    143.03119   -104.71508    1.9932076    40.500002    40.500002    40.500002    38.446668   -3.3201033 
     958        0.958    296.47524   -13127.103    9350.2248    9409.7874    9459.2544    9181.6325    146.36597   -103.51511    -4.451189    40.500002    40.500002    40.500002    38.479467   -3.3200887 
     959        0.959    296.39041   -13127.103    9354.4706    9423.4824    9457.7612    9182.1681     149.3069   -101.65984   -10.515502    40.500002    40.500002    40.500002    38.510765   -3.3200777 
     960         0.96    298.16833   -13126.156     9373.154    9452.0627    9470.5585    9196.8408    152.01165   -98.760657   -16.447939    40.500002    40.500002    40.500002    38.540157   -3.3200707 
     961        0.961    298.14505   -13126.156    9375.7697    9464.5345    9467.0099    9195.7647    154.07116   -95.375452   -22.302254    40.500002    40.500002    40.500002    38.567798   -3.3200677 
     962        0.962    298.15161   -13126.156    9377.3889    9476.1225    9462.2548    9193.7895    155.77443   -91.372931   -28.132281    40.500002    40.500002    40.500002    38.593624   -3.3200685 
     963        0.963    298.19022   -13126.156    9377.9428    9486.6473    9456.1632    9191.0178    157.15032   -86.789874   -33.897504    40.500002    40.500002    40.500002    38.617279   -3.3200735 
     964        0.964    298.26296   -13126.156    9377.4389    9496.0462    9448.7115    9187.5589    158.24628   -81.611782   -39.672671    40.500002    40.500002    40.500002    38.638396   -3.3200829 
     965        0.965    298.37181   -13126.156    9375.9427    9504.4221    9439.9713    9183.4347    159.18896   -75.862907   -45.472803    40.500002    40.500002    40.500002    38.656641   -3.3200969 
     966        0.966    298.51867   -13126.156    9373.5801    9511.9087    9430.1087    9178.7228    160.12896   -69.583189   -51.228455    40.500002    40.500002    40.500002    38.671728   -3.3201159 
     967        0.967    298.70517   -13126.156    9370.2515    9518.4354    9418.9903    9173.3289    160.96084   -62.810694   -56.838694    40.500002    40.500002    40.500002    38.683343     -3.32014 
     968        0.968    298.93248   -13126.156    9365.7857    9523.7942    9406.4344    9167.1286    161.60672   -55.688274   -62.103467    40.500002    40.500002    40.500002    38.691254   -3.3201694 
     969        0.969    299.20136   -13126.156    9360.1105    9527.8702    9392.3614    9160.0998    162.02184   -48.431353   -66.969983    40.500002    40.500002    40.500002    38.695282   -3.3202041 
     970         0.97    299.51229   -13126.156    9353.2946    9530.7079    9376.7954    9152.3805    162.09934   -41.017604   -71.439144    40.500002    40.500002    40.500002     38.69525   -3.3202443 
     971        0.971    299.86549   -13126.156    9345.2747    9532.2247    9359.5763     9144.023    161.75197   -33.474279   -75.464328    40.500002    40.500002    40.500002    38.691016   -3.3202899 
     972        0.972    300.26084   -13126.156    9336.0519    9532.4763    9340.7012    9134.9783    160.88828   -25.913654   -78.838886    40.500002    40.500002    40.500002    38.682444    -3.320341 
     973        0.973    300.69782   -13126.156    9325.6743    9531.6074    9320.3379    9125.0776     159.3981   -18.562782   -81.392357    40.500002    40.500002    40.500002    38.669296   -3.3203975 
     974        0.974    301.17545   -13126.156    9314.2039    9529.7206    9298.5909    9114.3002     157.3874   -11.480988   -83.109646    40.500002    40.500002    40.500002    38.651396   -3.3204592 
     975        0.975    301.69231   -13126.156    9301.6808    9526.8651    9275.4902    9102.6872    154.97024   -4.6581181   -83.992345    40.500002    40.500002    40.500002    38.628581    -3.320526 
     976        0.976     302.2465   -13126.156    9288.1064    9522.9245    9251.0913    9090.3033    152.19486    1.9725241   -84.028282    40.500002    40.500002    40.500002      38.6008   -3.3205977 
     977        0.977    302.83565   -13126.156    9273.5089    9517.7734    9225.3662    9077.3871    148.96541    8.3927553   -83.248792    40.500002    40.500002    40.500002    38.568117   -3.3206738 
     978        0.978    303.45681   -13126.156    9258.1946    9511.5944    9198.5524    9064.4371    145.28894    14.508869   -81.718916    40.500002    40.500002    40.500002    38.530751   -3.3207541 
     979        0.979    304.10653   -13126.156    9242.3176    9504.4439    9170.8487    9051.6602    141.24227    20.257865   -79.537646    40.500002    40.500002    40.500002    38.489055   -3.3208381 
     980         0.98     302.3905   -13127.392    9206.1317    9476.4082    9122.4855    9019.5015    136.31405    25.608984    -76.84569    40.500002    40.500002    40.500002    38.443451   -3.3209253 
     981        0.981    303.08676   -13127.392    9189.5599    9467.5325    9093.9592    9007.1878       131.49    30.436554   -73.741877    40.500002    40.500002    40.500002     38.39421   -3.3210153 
     982        0.982    303.80683   -13127.392    9172.8695    9457.9759    9065.4192    8995.2135    126.15503     34.68082   -70.276598    40.500002    40.500002    40.500002    38.341404   -3.3211084 
     983        0.983    304.54561   -13127.393     9156.234    9447.9376    9036.9676    8983.7968    120.34716    38.262293   -66.438629    40.500002    40.500002    40.500002     38.28575   -3.3212039 
     984        0.984    305.29767   -13127.393       9139.7     9437.291    9008.6959    8973.1131    114.09548    41.099397   -62.175597    40.500002    40.500002    40.500002    38.228027   -3.3213012 
     985        0.985    306.05727   -13127.393    9123.3584    9426.1102    8980.6857    8963.2794    107.48633    43.347319    -57.55518    40.500002    40.500002    40.500002    38.169095   -3.3213994 
     986        0.986    306.81841   -13127.393    9107.4285    9414.6764    8953.0832    8954.5259    100.59061    45.157266   -52.661859    40.500002    40.500002    40.500002    38.109952   -3.3214978 
     987        0.987    307.57511   -13127.393    9092.0721    9403.0827    8926.1001    8947.0334    93.358642    46.635437   -47.537786    40.500002    40.500002    40.500002    38.051607   -3.3215956 
     988        0.988    308.32162   -13127.394    9077.2065    9391.2919    8899.7195     8940.608    85.816923    47.793757   -42.305826    40.500002    40.500002    40.500002    37.994959   -3.3216921 
     989        0.989     309.0525   -13127.394    9062.8285    9379.2344    8874.0033    8935.2477    77.911229    48.511482   -37.124059    40.500002    40.500002    40.500002    37.940863   -3.3217866 
     990         0.99    304.88134   -13129.917     9008.586    9326.4765    8808.9463    8890.3353    68.645053    49.024216   -32.120839    40.500002    40.500002    40.500002    37.890051   -3.3218784 
     991        0.991    305.56864   -13129.917    8995.6082    9314.1114    8784.8874    8887.8257    60.378962    49.139609   -27.447779    40.500002    40.500002    40.500002    37.842719   -3.3219673 
     992        0.992    306.24214   -13129.917    8983.0874    9301.3638    8761.4576    8886.4409     51.99258    49.128999   -23.210901    40.500002    40.500002    40.500002    37.798183   -3.3220543 
     993        0.993    306.89768   -13129.917    8971.0762    9288.2741    8738.8796     8886.075    43.628376    49.008947   -19.581442    40.500002    40.500002    40.500002    37.756923   -3.3221391 
     994        0.994    307.53148   -13129.918    8959.6909    9274.8649    8717.4008    8886.8071    35.307367    48.988273   -16.608743    40.500002    40.500002    40.500002    37.719328    -3.322221 
     995        0.995    308.14016   -13129.918    8949.0416    9261.1217    8697.2567    8888.7465    27.065543    49.286554   -14.230407    40.500002    40.500002    40.500002    37.685601   -3.3222997 
     996        0.996    308.72088   -13129.918    8939.1986    9247.0615    8678.6261     8891.908    18.989884    49.957229   -12.375147    40.500002    40.500002    40.500002    37.655849   -3.3223748 
     997        0.997    309.27126   -13129.918    8930.0106    9232.6156    8661.4844    8895.9317    11.191884    50.771792   -11.000766    40.500002    40.500002    40.500002    37.630071   -3.3224459 
     998        0.998    309.78933   -13129.918    8921.3551    9217.6501    8645.7188    8900.6964    3.7838673    51.556515   -10.069787    40.500002    40.500002    40.500002    37.608111   -3.3225129 
     999        0.999    310.27348   -13129.918    8913.1861    9202.0654    8631.3638    8906.1292   -3.2693036    52.247867    -9.690255    40.500002    40.500002    40.500002    37.589787   -3.3225754 
    1000            1    305.36116   -13132.689    8860.9648    9141.4663    8575.4768    8865.9512   -11.335018    53.025424    -9.788808    40.500002    40.500002    40.500002    37.574923   -3.3226334 
Loop time of 4.3433 on 10 procs for 1000 steps with 4000 atoms

Performance: 19.893 ns/day, 1.206 hours/ns, 230.240 timesteps/s
94.0% CPU use with 10 MPI tasks x no OpenMP threads

MPI task timing breakdown:
Section |  min time  |  avg time  |  max time  |%varavg| %total
---------------------------------------------------------------
Pair    | 2.4547     | 2.5915     | 2.8925     |   7.2 | 59.67
Neigh   | 0          | 0          | 0          |   0.0 |  0.00
Comm    | 0.059289   | 0.099321   | 0.14722    |  11.0 |  2.29
Output  | 1.2688     | 1.4871     | 1.5794     |   7.3 | 34.24
Modify  | 0.027591   | 0.069514   | 0.11357    |   7.5 |  1.60
Other   |            | 0.09585    |            |       |  2.21

Nlocal:        400.000 ave         400 max         400 min
Histogram: 10 0 0 0 0 0 0 0 0 0
Nghost:        3182.00 ave        3182 max        3182 min
Histogram: 10 0 0 0 0 0 0 0 0 0
Neighs:        42578.0 ave       42578 max       42578 min
Histogram: 10 0 0 0 0 0 0 0 0 0

Total # of neighbors = 425780
Ave neighs/atom = 106.44500
Neighbor list builds = 0
Dangerous builds = 0
unfix 		1
unfix 		2

clear
next t
next i
next r
jump Timestep_determination.lmpin
#####################################################################################################################
# Course: Theory, Modelling, and Simulation of Microstructures (TMS) - Summer semester 2021
# Tutors: Dr. Arun Prakash, Vimal Muthusamy
# Description: Script to determine the timestep for a given interatomic potential
######################################################################################################################

# ------------------------ VARIABLES INITIALIZATION ----------------------------
variable i loop 6
variable t index 0.0001 0.0005 0.001 0.002 0.005 0.01
variable r index 10000 2000 1000 500 200 100 # No of steps for 1 ps

log log.time_step_$t.lammps
log log.time_step_0.002.lammps
