
# ------------------------ INITIALIZATION ----------------------------
clear
variable        latt0 equal 4.05000018187522  ### provide the lattice constant from your calculation
variable        lblock  equal 10

units           metal
atom_style      atomic
boundary        p  p  p
newton          off  off
processors      *  *  *


# ---------- STRUCTURE GENERATION ---------------------
lattice         fcc  ${latt0}  orient  x  1  0  0  orient  y  0  1  0  orient  z  0  0  1  origin  0.0    0.0    0.0
lattice         fcc  4.05000018187522  orient  x  1  0  0  orient  y  0  1  0  orient  z  0  0  1  origin  0.0    0.0    0.0
Lattice spacing in x,y,z = 4.0500002 4.0500002 4.0500002
region          sim_region  block  0  ${lblock}  0  ${lblock}  0  ${lblock}  units  lattice
region          sim_region  block  0  10  0  ${lblock}  0  ${lblock}  units  lattice
region          sim_region  block  0  10  0  10  0  ${lblock}  units  lattice
region          sim_region  block  0  10  0  10  0  10  units  lattice
create_box      1  sim_region
Created orthogonal box = (0.0000000 0.0000000 0.0000000) to (40.500002 40.500002 40.500002)
  1 by 2 by 5 MPI processor grid
create_atoms    1  box
Created 4000 atoms
  using lattice units in orthogonal box = (0.0000000 0.0000000 0.0000000) to (40.500002 40.500002 40.500002)
  create_atoms CPU = 0.001 seconds


# ------------------------ FORCE FIELDS ------------------------------
pair_style      eam/alloy ### TYPE OF POTENTIAL (eam (OR) eam/alloy)
pair_coeff      *  * /home03/nm95xule/TMS_SS2022Nan/Mishin_updated-Al-Co-2013.eam.alloy Al  ### POTENTIAL FILENAME

variable        natoms equal "count(all)"
variable        ecoh equal "pe/v_natoms"


# ------------------------- SETTINGS ---------------------------------
neighbor     	2.0 bin
neigh_modify 	delay 3
timestep 	$t
timestep 	0.005
thermo 		1
thermo_style 	custom step time temp etotal press pxx pyy pzz pxy pyz pxz lx ly lz fnorm v_ecoh

velocity 	all create 300.0 16723 rot yes dist gaussian


#--------------- ENERGY EQUILIBRATION --------------------------
fix 		2 all temp/rescale 10 300.0 300.0 1.0 0.5
fix 		1 all nve

run 		$r
run 		200
Neighbor list info ...
  update every 1 steps, delay 3 steps, check yes
  max neighbors/atom: 2000, page size: 100000
  master list distance cutoff = 8.499539
  ghost atom cutoff = 8.499539
  binsize = 4.2497695, bins = 10 10 10
  1 neighbor lists, perpetual/occasional/extra = 1 0 0
  (1) pair eam/alloy, perpetual
      attributes: half, newton off
      pair build: half/bin/newtoff
      stencil: full/bin/3d
      bin: standard
Per MPI rank memory allocation (min/avg/max) = 3.486 | 3.486 | 3.487 Mbytes
Step Time Temp TotEng Press Pxx Pyy Pzz Pxy Pyz Pxz Lx Ly Lz Fnorm v_ecoh 
       0            0          300   -13284.927    2493.3961    2492.1088    2488.1545    2499.9249    12.334899    1.2479016   -11.799564    40.500002    40.500002    40.500002 8.9842794e-15        -3.36 
       1        0.005    288.50604   -13284.849    2563.5235    2563.8904    2561.7575    2564.9227    12.217762    1.0434758   -11.096227    40.500002    40.500002    40.500002    8.3600753   -3.3584953 
       2         0.01    256.23248   -13284.662     2795.336    2795.0838    2808.5067    2782.4175     10.91726    1.0480399   -9.4905347    40.500002    40.500002    40.500002    16.332765    -3.354278 
       3        0.015    209.20556   -13284.378    3332.8729    3322.0015    3373.3166    3303.3007    9.8389689    3.5721211   -11.595402    40.500002    40.500002    40.500002    23.729674   -3.3481297 
       4         0.02    156.46668   -13284.028      4119.14    4088.7998    4196.2747    4072.3454    8.3482732     8.023363   -19.851831    40.500002    40.500002    40.500002    29.999545   -3.3412268 
       5        0.025    108.64539   -13283.715    4922.0705    4864.1742     5040.901    4861.1362    7.8842763    11.754719   -33.085872    40.500002    40.500002    40.500002    34.458171   -3.3349687 
       6         0.03     75.06275   -13283.545    5504.0728    5412.9844    5664.3777    5434.8564    8.0300803    11.927207   -48.592723    40.500002    40.500002    40.500002    36.607618   -3.3305865 
       7        0.035    60.772395   -13283.569    5721.0571    5595.4515    5917.0253    5650.6944     8.979966    8.0362663   -63.290127    40.500002    40.500002    40.500002    36.320029   -3.3287458 
       8         0.04    65.161732   -13283.756    5563.3109     5406.364    5784.9929     5498.576    11.568996    2.0186739   -73.605644    40.500002    40.500002    40.500002    33.914357   -3.3293597 
       9        0.045    82.786196   -13284.017    5141.8144    4961.6308    5376.4977    5087.3145    16.486371    -2.468004   -77.646335    40.500002    40.500002    40.500002     30.13064   -3.3317026 
      10         0.05    202.93824   -13234.082     5439.455    5211.0631    5681.6176    5425.6842     29.32062   0.91312448   -80.163306    40.500002    40.500002    40.500002    26.032996   -3.3347458 
      11        0.055    226.82898   -13234.221    4963.2664    4738.7322    5190.1258     4960.941    26.943895    7.8730239   -71.608954    40.500002    40.500002    40.500002    22.454185   -3.3378679 
      12         0.06    231.90329   -13234.168    4904.3653    4700.4172    5105.3111    4907.3675      15.9107     12.30044   -66.286994    40.500002    40.500002    40.500002    23.143803   -3.3385104 
      13        0.065    219.57488    -13233.95    5184.0832    5018.7658    5348.1706    5185.3132    4.0220246    16.993022    -60.20117    40.500002    40.500002    40.500002    27.164095   -3.3368628 
      14         0.07    196.41237   -13233.631    5660.3498     5545.394    5782.7986     5652.857   -7.1943277    29.123955   -51.931065    40.500002    40.500002    40.500002    32.216674   -3.3337896 
      15        0.075    172.01938   -13233.314    6148.7831     6081.874    6230.1342    6134.3412   -12.733691    46.673172   -44.454184    40.500002    40.500002    40.500002    36.514788   -3.3305583 
      16         0.08    155.84891   -13233.113     6457.875    6428.4767    6502.7845    6442.3639    -15.39628     64.10991   -40.316073    40.500002    40.500002    40.500002    39.017648   -3.3284183 
      17        0.085    153.94231   -13233.094    6464.9321    6458.5011    6479.8882     6456.407    -13.74575    74.554377   -46.309633    40.500002    40.500002    40.500002    39.298097   -3.3281671 
      18         0.09     166.9801   -13233.247     6161.082    6161.3834    6154.8358    6167.0267   -7.1774846     74.54335   -62.890738    40.500002    40.500002    40.500002    37.467398   -3.3298902 
      19        0.095     190.4828     -13233.5    5651.5362     5646.135    5631.7741    5676.6994   0.55713229    65.181912   -80.926613    40.500002    40.500002    40.500002     34.10059   -3.3329907 
      20          0.1    258.43774   -13212.273    5461.8503    5447.1724    5428.7563    5509.6223    8.7238381    54.810225   -90.723769    40.500002    40.500002    40.500002    30.143618   -3.3364655 
      21        0.105    280.12568   -13212.459    5067.2873    5035.7105    5033.7557    5132.3957    8.9009316    39.811044   -90.524184    40.500002    40.500002    40.500002    26.699469   -3.3393148 
      22         0.11     287.0242   -13212.514    4970.5647    4925.2531    4936.9138    5049.5271    4.3878929    33.068266   -89.194784    40.500002    40.500002    40.500002    25.637947     -3.34022 
      23        0.115    277.43179   -13212.425    5176.5031     5118.322    5148.4192     5262.768   -2.8991283     34.56655    -88.26154    40.500002    40.500002    40.500002     27.38706   -3.3389582 
      24         0.12    254.13621   -13212.213    5645.3486    5580.4381    5632.7427    5722.8649   -6.5988229    38.556375   -84.358639    40.500002    40.500002    40.500002    31.051422   -3.3358947 
      25        0.125    223.69735   -13211.934    6276.9728    6215.3749    6287.0205    6328.5231    -5.342179    40.814625   -78.333806    40.500002    40.500002    40.500002    35.203529   -3.3318914 
      26         0.13     194.6345   -13211.673     6900.979    6846.2273    6935.0742    6921.6355   -2.3173179    38.748354   -67.180789    40.500002    40.500002    40.500002    38.639473   -3.3280704 
      27        0.135    174.86298   -13211.515    7335.7581    7284.1434    7390.4002    7332.7306    6.1133812     32.93286   -45.427885    40.500002    40.500002    40.500002    40.573029   -3.3254759 
      28         0.14    169.18086   -13211.509    7466.8988    7414.3375    7537.9179     7448.441    16.989411    23.278727   -18.492531    40.500002    40.500002    40.500002    40.665914   -3.3247401 
      29        0.145    177.83074   -13211.646     7283.704     7228.806    7365.6664    7256.6395    24.421204    17.024009    7.4053252    40.500002    40.500002    40.500002    39.020973   -3.3258921 
      30         0.15    248.36821   -13185.178    7309.4599     7244.406    7394.2329    7289.7409    20.856083    19.035107    22.195699    40.500002    40.500002    40.500002    36.141889   -3.3283905 
      31        0.155    271.04959     -13185.4    6838.7048     6774.165    6925.7854     6816.164    4.7143159    29.226727    31.585365    40.500002    40.500002    40.500002    32.745325   -3.3313771 
      32         0.16    285.53543   -13185.525    6547.1337    6487.5661    6639.5361    6514.2987   -19.659982    44.265325    27.147722    40.500002    40.500002    40.500002    30.554569   -3.3332803 
      33        0.165    287.79583   -13185.533    6496.1101    6445.3062    6596.9969    6446.0273   -39.744498    60.334104    8.1725955    40.500002    40.500002    40.500002    30.309382   -3.3335744 
      34         0.17    277.51698   -13185.424    6678.7065    6633.6876    6790.4432    6611.9888   -45.546785    79.938129   -24.985529    40.500002    40.500002    40.500002    31.997648   -3.3322189 
      35        0.175    258.01033    -13185.23    7038.9287    6993.8956    7166.3051    6956.5854    -35.65659     97.05165   -62.961051    40.500002    40.500002    40.500002    34.851394   -3.3296496 
      36         0.18    235.20026   -13185.009    7474.9359    7427.0389    7616.5209    7381.2478   -18.632878    106.28643   -90.129343    40.500002    40.500002    40.500002    37.846091   -3.3266467 
      37        0.185    215.82909    -13184.83    7853.4429    7800.8092    8003.3391    7756.1805   -1.6091169    105.84555     -100.143    40.500002    40.500002    40.500002     40.12309   -3.3240986 
      38         0.19    205.37456   -13184.747    8055.2073    7999.2034    8205.7523    7960.6663    10.283548    94.400263   -96.865193    40.500002    40.500002    40.500002    41.148058    -3.322727 
      39        0.195    206.37494   -13184.785    8022.8043    7962.0539    8166.9593    7939.3998    16.890971     65.01547    -83.82553    40.500002    40.500002    40.500002     40.74684   -3.3228656 
      40          0.2    258.88249   -13163.666    8112.5443    8041.0095    8247.5919    8049.0315    15.505523      27.7842   -63.383406    40.500002    40.500002    40.500002    39.107783   -3.3243714 
      41        0.205    276.11327   -13163.841    7742.3181    7650.1258    7871.6602    7705.1682    9.4298877   -32.392188   -46.676921    40.500002    40.500002    40.500002    36.754027   -3.3266419 
      42         0.21    290.64689   -13163.972      7444.56    7326.4532    7577.9257    7429.3012  -0.61558218   -81.645554   -32.527869    40.500002    40.500002    40.500002     34.79778   -3.3285526 
      43        0.215     298.3559   -13164.027     7303.209    7158.4565    7455.8089    7295.3617   -19.159122   -107.89623   -20.501063    40.500002    40.500002    40.500002    33.858272   -3.3295626 
      44         0.22    297.43026   -13163.998    7338.1088     7168.703    7524.7356    7320.8877   -49.032088   -112.65306   -12.739394    40.500002    40.500002    40.500002    34.186483   -3.3294359 
      45        0.225    288.67146   -13163.899    7521.2668    7332.9122    7744.7563    7486.1317    -84.44556   -102.65473   -7.8272095    40.500002    40.500002    40.500002    35.562773   -3.3282792 
      46         0.23    275.09107   -13163.761    7794.6122    7600.0812    8043.8082    7739.9471   -114.91378   -80.838993   -5.4939676    40.500002    40.500002    40.500002     37.43395   -3.3264896 
      47        0.235    260.91224   -13163.627    8081.8166     7899.505    8335.9567     8009.988   -128.34246   -40.482632   -11.512296    40.500002    40.500002    40.500002    39.183723   -3.3246238 
      48         0.24    250.24654   -13163.537    8301.1067    8149.6288     8541.097    8212.5944    -121.1888    13.906734   -26.234732    40.500002    40.500002    40.500002    40.331147   -3.3232231 
      49        0.245    245.88123   -13163.514    8393.4429    8289.0379    8600.3887    8290.9021   -99.653854    67.399946   -43.713447    40.500002    40.500002    40.500002    40.616324   -3.3226533 
      50         0.25    274.26438   -13150.259    8555.2291    8511.3995      8716.34    8437.9479   -79.840437    105.08201   -48.824852    40.500002    40.500002    40.500002    40.022522   -3.3230073 
      51        0.255    281.67311   -13150.349    8406.2395    8417.4044    8514.3459    8286.9682   -62.026395    130.25116   -41.117639    40.500002    40.500002    40.500002    38.826098   -3.3239873 
      52         0.26    289.66865   -13150.441     8255.562    8305.8183    8322.4249    8138.4427   -57.238613    121.40713   -17.537658    40.500002    40.500002    40.500002    37.558182   -3.3250434 
      53        0.265    295.39749   -13150.505    8165.1972    8232.3343    8217.1977    8046.0595   -68.608778    79.607674    27.083863    40.500002    40.500002    40.500002    36.619588   -3.3257999 
      54         0.27    296.83546   -13150.523    8168.7341    8231.2104    8229.3283    8045.6635   -87.628667    17.885858    79.776263    40.500002    40.500002    40.500002    36.313619   -3.3259903 
      55        0.275    293.39805   -13150.489    8263.4203    8307.8903    8350.7634     8131.607   -116.27114   -44.437975    123.63549    40.500002    40.500002    40.500002    36.715168   -3.3255374 
      56         0.28    286.07886   -13150.417    8428.8661    8446.5381    8556.4025    8283.6576   -150.25033   -95.319349    146.55614    40.500002    40.500002    40.500002    37.632652   -3.3245735 
      57        0.285    277.04992   -13150.332    8622.9057    8610.4332    8793.6625    8464.6212   -188.29387   -128.10039    147.51246    40.500002    40.500002    40.500002    38.712248   -3.3233855 
      58         0.29    268.87135   -13150.265    8785.7676    8744.7034    8992.7109    8619.8887   -227.55132   -144.61489    127.04898    40.500002    40.500002    40.500002    39.601483   -3.3223118 
      59        0.295    263.64863    -13150.23    8869.7901    8802.6542    9096.0472    8710.6688   -261.62915   -151.42704    90.459528    40.500002    40.500002    40.500002    40.078227   -3.3216283 
      60          0.3    281.24797    -13140.54     9015.271    8918.4582    9248.2776    8879.0772   -284.52142   -153.84313    54.398032    40.500002    40.500002    40.500002    40.070154   -3.3214799 
      61        0.305    283.32704    -13140.57    8938.6064    8813.7497    9160.8621    8841.2074   -292.89242   -143.98552    23.705992    40.500002    40.500002    40.500002    39.711209   -3.3217561 
      62         0.31    286.90643   -13140.606    8838.7722    8697.8943    9035.2375    8783.1848   -289.78737   -136.35178    14.493913    40.500002    40.500002    40.500002    39.237385   -3.3222277 
      63        0.315    290.85836   -13140.639    8743.2498    8597.2679    8903.3247    8729.1568   -274.89844   -134.72481    26.557947    40.500002    40.500002    40.500002    38.796677   -3.3227466 
      64         0.32    294.16377   -13140.658    8670.9565    8529.4733    8787.4648    8695.9314   -252.86687   -136.61941    51.868111    40.500002    40.500002    40.500002    38.507267   -3.3231786 
      65        0.325    296.18521   -13140.662    8635.3564    8505.5094    8702.8682    8697.6916   -229.08266    -141.9177    85.547559    40.500002    40.500002    40.500002    38.412326   -3.3234409 
      66         0.33    296.74637   -13140.655      8631.35     8519.589    8648.4731    8725.9878   -203.66452      -153.92    119.38292    40.500002    40.500002    40.500002    38.485523   -3.3235117 
      67        0.335    296.04755   -13140.641     8652.526    8562.4315    8630.8756    8764.2708   -183.13591   -167.12578    138.52864    40.500002    40.500002    40.500002    38.671174   -3.3234177 
      68         0.34    294.53818   -13140.623    8691.0467    8619.7712    8651.8863    8801.4825   -168.62176   -172.92367    139.79105    40.500002    40.500002    40.500002    38.899119   -3.3232182 
      69        0.345    292.76597   -13140.607    8722.5818    8660.8637    8689.9269    8816.9549   -152.31197   -164.28163    126.44917    40.500002    40.500002    40.500002    39.093997   -3.3229852 
      70         0.35    295.60415   -13138.326     8773.356    8711.4267    8770.1844    8838.4568   -137.59644   -144.85686    105.27122    40.500002    40.500002    40.500002    39.196457   -3.3227818 
      71        0.355    294.31433   -13138.327    8779.1175    8709.1728    8818.2632    8809.9163   -123.96338   -113.95509    87.593299    40.500002    40.500002    40.500002    39.206271   -3.3226153 
      72         0.36    293.12238   -13138.331     8785.752    8707.6944    8863.5564    8786.0052   -113.00673   -77.368995    80.611566    40.500002    40.500002    40.500002    39.175916   -3.3224624 
      73        0.365    291.92816   -13138.334    8803.3069    8718.1519    8908.4945    8783.2744   -103.95132   -48.867692    87.037496    40.500002    40.500002    40.500002    39.161328   -3.3223087 
      74         0.37    290.68192    -13138.33    8840.8285    8757.3372    8950.1971    8814.9511   -90.856373   -36.005411    100.07225    40.500002    40.500002    40.500002    39.208756   -3.3221467 
      75        0.375    289.51916   -13138.317    8887.7349    8820.4751    8975.6613    8867.0684   -65.770672   -34.851246    110.72992    40.500002    40.500002    40.500002    39.317613   -3.3219931 
      76         0.38    288.77231   -13138.305    8924.9518    8879.5921    8974.7659    8920.4974   -37.513855    -42.31335    118.95383    40.500002    40.500002    40.500002    39.429782   -3.3218936 
      77        0.385    288.78035   -13138.299    8949.6125    8916.9203    8958.6102    8973.3071   -11.262337   -50.509718    127.95037    40.500002    40.500002    40.500002    39.482693   -3.3218931 
      78         0.39    289.71069   -13138.301    8960.2411    8924.8869    8933.9208    9021.9155    12.621256   -51.629259    140.09399    40.500002    40.500002    40.500002     39.43367   -3.3220138 
      79        0.395    291.48731    -13138.31    8950.3871    8898.1294    8895.9968     9057.035    30.508442   -40.744787    148.39022    40.500002    40.500002    40.500002    39.274598   -3.3222458 
      80          0.4    296.89723    -13136.72    8944.4381    8866.2289    8867.2334     9099.852    35.784408   -17.032114     148.0478    40.500002    40.500002    40.500002    39.029036   -3.3225473 
      81        0.405    299.12664   -13136.737    8902.0278    8792.8903    8809.3203    9103.8728    33.335243    10.710808    134.73438    40.500002    40.500002    40.500002    38.749172   -3.3228398 
      82         0.41    300.56237   -13136.752    8868.6479    8730.5437    8765.2656    9110.1343    31.988661    35.438745     110.8704    40.500002    40.500002    40.500002    38.521061   -3.3230291 
      83        0.415    300.73346   -13136.757    8852.9316    8690.7961    8743.9388      9124.06    42.464288    58.281832    85.308728    40.500002    40.500002    40.500002    38.430617   -3.3230524 
      84         0.42    299.48607   -13136.747    8858.1205    8677.9579    8752.9503    9143.4532    65.864591    83.913679     61.52203    40.500002    40.500002    40.500002     38.52555   -3.3228888 
      85        0.425    297.09668   -13136.726     8884.387    8692.5612    8799.4973    9161.1025    91.896999    109.25417    37.320678    40.500002    40.500002    40.500002    38.783474   -3.3225747 
      86         0.43    294.21433   -13136.699    8919.3454    8718.6146      8870.68    9168.7417    109.44872    134.96519    13.460251    40.500002    40.500002    40.500002    39.106416   -3.3221955 
      87        0.435     291.6399   -13136.677    8953.9562    8743.7311    8950.4836    9167.6538    125.98947    154.02032   -8.8160731    40.500002    40.500002    40.500002     39.37452   -3.3218573 
      88         0.44    290.03188   -13136.668    8971.8372     8754.191    9018.2411    9143.0795    144.09417    171.15701   -24.826232    40.500002    40.500002    40.500002    39.502393   -3.3216473 
      89        0.445    289.69386   -13136.672     8966.392    8745.7933    9064.4296    9088.9533    157.49023    182.35824   -38.878353    40.500002    40.500002    40.500002     39.47251   -3.3216044 
      90         0.45      295.273    -13134.24    8980.0021    8763.5178    9124.9571    9051.5314    160.29382    170.29339   -52.116029    40.500002    40.500002    40.500002    39.314082   -3.3217176 
      91        0.455    296.73755   -13134.257    8954.8654    8753.3765    9132.4763    8978.7434    156.48599    132.51333   -62.948717    40.500002    40.500002    40.500002    39.099881    -3.321911 
      92         0.46    298.08456   -13134.272    8942.9088    8766.7701    9133.3862    8928.5702    152.93469    78.995315   -66.897209    40.500002    40.500002    40.500002    38.918293   -3.3220887 
      93        0.465    298.86652    -13134.28    8943.7742    8795.6923    9134.8811    8900.7493    154.22509    22.322998   -65.063283    40.500002    40.500002    40.500002    38.835653   -3.3221919 
      94         0.47    298.85478   -13134.277    8963.2202     8840.449     9146.818    8902.3937    151.70649   -24.435839   -60.537643    40.500002    40.500002    40.500002    38.893994   -3.3221896 
      95        0.475    298.16022   -13134.262    8996.5026    8884.8533    9172.5334    8932.1212    137.01376   -50.970114   -56.450757    40.500002    40.500002    40.500002    39.074614   -3.3220962 
      96         0.48    297.20911   -13134.245    9027.0536    8917.3672    9194.7743    8969.0194    116.33076    -51.75018   -54.520832    40.500002    40.500002    40.500002    39.299724   -3.3219689 
      97        0.485    296.52493   -13134.233    9045.1625     8935.151    9206.1133     8994.223    97.018859   -40.439817    -60.62691    40.500002    40.500002    40.500002    39.475008   -3.3218776 
      98         0.49    296.49819   -13134.228    9048.7494    8940.1099    9203.6353    9002.5029    75.951048   -23.633026   -75.117623    40.500002    40.500002    40.500002    39.540809   -3.3218728 
      99        0.495    297.27773   -13134.233    9030.1042    8928.9654    9172.1752    8989.1721    51.859318    -13.03815   -89.849481    40.500002    40.500002    40.500002    39.467103   -3.3219747 
     100          0.5    299.34885   -13133.912    9000.9572    8917.3132    9115.3272    8970.2314    29.620238   -11.445267   -93.492367    40.500002    40.500002    40.500002    39.261095   -3.3221621 
     101        0.505    300.89704   -13133.933    8967.1844    8907.4296    9042.5764    8951.5471    17.027211   -20.286193   -84.756929    40.500002    40.500002    40.500002    38.978807   -3.3223676 
     102         0.51     301.8715   -13133.955    8950.5492    8920.2222     8983.733    8947.6925    19.468977    -37.46615   -69.248656    40.500002    40.500002    40.500002    38.715208    -3.322499 
     103        0.515     301.6212   -13133.968    8963.4987    8967.5739    8951.5123    8971.4098    37.278977   -56.649091   -52.635461    40.500002    40.500002    40.500002    38.585211   -3.3224699 
     104         0.52    299.80494   -13133.961    9012.6682    9051.5868     8963.004    9023.4139     57.45968   -65.799941   -41.911092    40.500002    40.500002    40.500002    38.674733   -3.3222333 
     105        0.525    296.64622   -13133.935    9083.0479    9153.1541    9011.4768    9084.5129    78.546072   -60.694694   -38.943552    40.500002    40.500002    40.500002    38.976392   -3.3218186 
     106         0.53    292.91956   -13133.898    9153.6424    9241.5368    9080.5334     9138.857    89.310724   -43.046638   -41.257707    40.500002    40.500002    40.500002    39.398536   -3.3213279 
     107        0.535    289.72004   -13133.862    9203.0064    9283.5375    9153.3926    9172.0891    79.343191   -15.705657   -41.111342    40.500002    40.500002    40.500002    39.802829   -3.3209053 
     108         0.54    288.12626   -13133.837    9217.8591    9263.4338    9212.6214     9177.522    54.776081    6.9513183   -35.517921    40.500002    40.500002    40.500002    40.053654   -3.3206932 
     109        0.545    288.84501   -13133.834    9186.5278     9179.507    9235.0159    9145.0607    22.438961    21.764476   -23.376673    40.500002    40.500002    40.500002    40.062669   -3.3207853 
     110         0.55    295.98271   -13131.775    9144.6338    9077.3723    9242.9291    9113.6001   -20.135676    27.079302   -7.3453359    40.500002    40.500002    40.500002    39.809279   -3.3211929 
     111        0.555    300.80161   -13131.807    9040.3579    8920.6959    9176.2984    9024.0794   -65.830092     21.27804    2.8618738    40.500002    40.500002    40.500002    39.356257   -3.3218236 
     112         0.56    306.09452   -13131.846    8930.9963    8778.9098    9082.8981     8931.181   -107.51968     3.163575    7.6313145    40.500002    40.500002    40.500002    38.823127   -3.3225174 
     113        0.565    310.64941   -13131.879    8837.1705    8669.4948     8987.744    8854.2726   -128.92619    -20.40179    9.7964562    40.500002    40.500002    40.500002    38.354868   -3.3231143 
     114         0.57    313.41435   -13131.897    8782.6724    8613.3681    8924.4733    8810.1756   -128.81156   -53.306212     11.17398    40.500002    40.500002    40.500002     38.09993    -3.323476 
     115        0.575    313.83868   -13131.892    8774.7611    8617.7912    8903.6894    8802.8029   -127.42815   -95.718638     20.33793    40.500002    40.500002    40.500002    38.142427   -3.3235297 
     116         0.58    312.05763   -13131.865    8809.0883    8672.6807    8924.5293    8830.0549   -129.96162   -130.37631    35.948446    40.500002    40.500002    40.500002    38.457366   -3.3232927 
     117        0.585    308.85677   -13131.828    8879.9961    8773.6757    8976.2888    8890.0239   -135.39192   -148.46972     52.20669    40.500002    40.500002    40.500002    38.908486   -3.3228698 
     118         0.59    305.35799   -13131.793     8961.085    8890.1739     9025.946    8967.1349   -144.18741   -144.13576    68.979778    40.500002    40.500002    40.500002    39.312502   -3.3224089 
     119        0.595    302.57263   -13131.776    9022.1077    8992.3337    9048.2323     9025.757   -145.47682   -123.15323    94.512944    40.500002    40.500002    40.500002    39.518683   -3.3220449 
     120          0.6    300.50847   -13132.044    9044.5719    9058.7237    9039.8137    9035.1782   -133.73234   -94.194278    125.78009    40.500002    40.500002    40.500002    39.478751   -3.3218451 
     121        0.605     300.0861   -13132.065    9046.2988    9096.6251    9021.5262    9020.7452   -109.93783   -58.254471    158.50772    40.500002    40.500002    40.500002    39.249316   -3.3217957 
     122         0.61    300.20555   -13132.093    9035.9186    9112.1482    8998.9565     8996.651    -68.71095   -21.116679    183.06924    40.500002    40.500002    40.500002    38.948929   -3.3218182 
     123        0.615    300.06169   -13132.116    9029.9626       9127.5     8985.013    8977.3747   -18.891199    9.5575021    186.92545    40.500002    40.500002    40.500002    38.714234   -3.3218052 
     124         0.62    299.01178   -13132.123       9037.6     9147.522     8986.439    8978.8391    21.445938    20.338005    160.33544    40.500002    40.500002    40.500002    38.640073   -3.3216713 
     125        0.625     296.8367   -13132.115    9069.6625    9178.8015     9008.298    9021.8878    43.543428    11.696941    113.01505    40.500002    40.500002    40.500002    38.746984   -3.3213882 
     126         0.63    293.76713   -13132.098    9130.3738    9227.0621     9052.083    9111.9761    42.964055   -9.7668942    49.594655    40.500002    40.500002    40.500002    38.991955   -3.3209873 
     127        0.635    290.34749   -13132.075    9213.7842    9290.1991    9121.2741    9229.8794    26.572796    -37.61822   -17.057661    40.500002    40.500002    40.500002     39.31729   -3.3205396 
     128         0.64     287.3099   -13132.051    9296.0265    9341.5056    9199.3878    9347.1862    2.4466265   -69.260833    -65.62058    40.500002    40.500002    40.500002    39.651627   -3.3201411 
     129        0.645    285.41888   -13132.031    9358.5339    9361.9057    9269.1677    9444.5282   -28.280565   -99.625779   -90.672507    40.500002    40.500002    40.500002    39.911277   -3.3198919 
     130         0.65    292.64177   -13128.218    9451.1334    9409.2932    9380.5128    9563.5941   -54.823603   -119.74695   -94.333529    40.500002    40.500002    40.500002    40.007262   -3.3198719 
     131        0.655    294.21542   -13128.223    9441.4659    9349.1702    9406.6154     9568.612   -69.190118    -126.6083     -82.8688    40.500002    40.500002    40.500002    39.902585   -3.3200766 
     132         0.66    296.95838   -13128.244    9395.1975    9259.7246    9404.8255    9521.0425   -57.315095    -111.8105   -51.994168    40.500002    40.500002    40.500002    39.626154   -3.3204363 
     133        0.665    300.23423   -13128.271    9321.0318    9153.8822    9375.3443     9433.869   -24.851442   -71.480057    -6.274974    40.500002    40.500002    40.500002     39.26359   -3.3208665 
     134         0.67    303.20738   -13128.293    9234.0071    9045.5817    9333.6231    9322.8167     10.44228   -10.173022    40.565909    40.500002    40.500002    40.500002    38.946514   -3.3212562 
     135        0.675    305.18902   -13128.302    9161.0278    8968.7852    9301.5198    9212.7783    35.896149    55.931041    73.159882    40.500002    40.500002    40.500002    38.781159   -3.3215144 
     136         0.68    305.86409   -13128.298    9124.9099    8943.7482    9297.8113      9133.17    51.959567    106.05829    91.323266    40.500002    40.500002    40.500002    38.797554   -3.3216005 
     137        0.685    305.34061    -13128.28     9126.506    8969.0899    9319.9091    9090.5189    60.274293    132.59904    90.849407    40.500002    40.500002    40.500002    38.958035   -3.3215286 
     138         0.69    304.08272    -13128.26    9156.6649    9028.2759    9352.4489    9089.2699    58.885179    131.61485    72.929491    40.500002    40.500002    40.500002     39.17255   -3.3213609 
     139        0.695    302.67988   -13128.245    9190.6814    9089.4412    9372.1226    9110.4806    43.558962    111.05662    39.531315    40.500002    40.500002    40.500002    39.345864   -3.3211759 
     140          0.7    300.78649   -13128.648    9197.1727    9122.5781    9352.1626    9116.7774    13.932741    75.553854     -6.75912    40.500002    40.500002    40.500002     39.41688    -3.321032 
     141        0.705    300.16436   -13128.653    9187.2685    9137.3736    9309.5888    9114.8432   -18.072752    19.194958   -56.029324    40.500002    40.500002    40.500002    39.388044   -3.3209528 
     142         0.71    299.94333   -13128.663    9162.6767    9131.1568    9249.6322    9107.2412   -38.395299    -49.47398   -90.006767    40.500002    40.500002    40.500002      39.3051   -3.3209267 
     143        0.715     299.8595   -13128.671    9145.0116    9122.5915    9201.2249    9111.2183   -49.218489   -116.21052   -108.22015    40.500002    40.500002    40.500002    39.252312   -3.3209179 
     144         0.72    299.73437   -13128.667    9151.0825    9131.6189    9181.8725    9139.7562   -55.386247   -173.01738   -115.13549    40.500002    40.500002    40.500002    39.295415   -3.3209007 
     145        0.725     299.6788   -13128.653    9174.2863    9159.4062    9180.8334    9182.6192   -58.687863   -212.13882    -104.5495    40.500002    40.500002    40.500002    39.420128     -3.32089 
     146         0.73    300.04858   -13128.641    9198.0876    9199.0499     9176.255    9218.9579   -61.987985   -223.58808   -71.153475    40.500002    40.500002    40.500002    39.547092   -3.3209348 
     147        0.735    301.19733   -13128.635     9218.949    9238.0927    9171.3631    9247.3912   -74.762582   -207.70819   -27.881326    40.500002    40.500002    40.500002    39.598882   -3.3210819 
     148         0.74     303.2677    -13128.64    9228.0237    9256.2322    9163.4335    9264.4053   -104.48961   -172.36536    6.3842643    40.500002    40.500002    40.500002    39.534508   -3.3213507 
     149        0.745    306.10407   -13128.655    9215.1424    9242.2646    9143.2277     9259.935    -141.1703   -123.60151    12.846736    40.500002    40.500002    40.500002    39.356574    -3.321721 
     150         0.75    304.62391   -13131.068    9146.8916    9161.4416    9079.7981     9199.435   -163.38183   -74.409906    -7.091068    40.500002    40.500002    40.500002    39.105889   -3.3221328 
     151        0.755     307.5907   -13131.091    9106.2986    9092.1382    9059.8883    9166.8693   -168.95724   -37.670217   -46.375637    40.500002    40.500002    40.500002    38.836731    -3.322522 
     152         0.76    309.90315    -13131.11    9071.1354    9012.3113    9060.3192    9140.7758   -158.86349   -17.248797   -93.107702    40.500002    40.500002    40.500002    38.616113   -3.3228256 
     153        0.765    310.99867   -13131.118     9058.281    8945.7208    9096.8075    9132.3147   -139.79775   -21.689276   -140.34722    40.500002    40.500002    40.500002    38.526166   -3.3229692 
     154         0.77    310.64692   -13131.112    9072.1022    8903.3252    9162.4794    9150.5021   -115.19594   -51.750053   -178.11006    40.500002    40.500002    40.500002    38.598218   -3.3229222 
     155        0.775    309.01309   -13131.097     9101.139     8884.493    9236.2119    9182.7122   -81.988036    -102.0885   -198.55269    40.500002    40.500002    40.500002    38.797781   -3.3227073 
     156         0.78     306.5566   -13131.078     9131.502     8877.457    9302.0528     9214.996   -43.474061    -161.7637   -201.44408    40.500002    40.500002    40.500002    39.055839   -3.3223851 
     157        0.785    303.87249    -13131.06    9151.4238     8870.086    9347.5445     9236.641   -6.9832101   -220.53793   -194.08801    40.500002    40.500002    40.500002    39.300144   -3.3220338 
     158         0.79    301.52238   -13131.048    9155.2904    8862.1524    9360.5853    9243.1336    23.862507   -271.30045   -177.76527    40.500002    40.500002    40.500002     39.47652   -3.3217271 
     159        0.795    299.89725   -13131.042    9145.8157    8859.9602    9343.4975    9233.9893    43.297473   -305.09797   -151.82787    40.500002    40.500002    40.500002    39.566495   -3.3215157 
     160          0.8    299.19725   -13131.041      9123.39    8864.4046    9297.1587    9208.6068    44.451075   -308.65991   -113.91826    40.500002    40.500002    40.500002     39.57258   -3.3214249 
     161        0.805    299.45085   -13131.046    9087.9584    8870.8432    9229.8498    9163.1822    20.420115   -279.73011   -66.748467    40.500002    40.500002    40.500002     39.49728    -3.321459 
     162         0.81    300.50235   -13131.055    9034.2117    8871.5451    9145.6075    9085.4823    -26.53354   -232.57083   -24.862429    40.500002    40.500002    40.500002    39.347645   -3.3215971 
     163        0.815    302.02923    -13131.07    8966.5937    8859.2769    9064.5583    8975.9461   -78.784053   -179.49143    5.5120738    40.500002    40.500002    40.500002    39.131854   -3.3217982 
     164         0.82    303.54291    -13131.09    8903.9156    8838.9905    9006.5094    8866.2469   -117.67124   -126.21907    17.443085    40.500002    40.500002    40.500002      38.8843   -3.3219988 
     165        0.825    304.44019   -13131.107    8873.4903    8832.1879    8986.5635    8801.7195   -135.24912   -76.687305    13.267328    40.500002    40.500002    40.500002    38.682891    -3.322119 
     166         0.83    304.21415   -13131.114    8882.6976    8847.3406    8998.3749    8802.3775   -128.34004   -42.776392   -6.3349738    40.500002    40.500002    40.500002    38.606502   -3.3220915 
     167        0.835    302.66864   -13131.109    8928.3164    8883.4584    9031.2861    8870.2047   -96.908328   -29.109079   -40.114986    40.500002    40.500002    40.500002    38.689163   -3.3218904 
     168         0.84    299.97494   -13131.094    9007.3583    8946.6637     9082.845    8992.5662    -40.02659   -34.659358   -80.903901    40.500002    40.500002    40.500002    38.913564   -3.3215385 
     169        0.845    296.62935   -13131.071    9109.0034    9036.9149    9147.9532    9142.1421    26.927126   -51.970549    -110.9459    40.500002    40.500002    40.500002    39.224907   -3.3211004 
     170         0.85    296.67322   -13129.327    9245.8101    9173.7551    9248.0075    9315.6677    87.378224   -77.701778   -124.09938    40.500002    40.500002    40.500002    39.553734   -3.3206702 
     171        0.855    294.06108   -13129.305      9353.02    9295.3461    9321.6434    9442.0705    136.80984    -98.28974   -127.53859    40.500002    40.500002    40.500002    39.847659    -3.320327 
     172         0.86    292.69189   -13129.288    9441.8267    9403.5905    9386.7389    9535.1507    174.17624    -104.5243   -126.98548    40.500002    40.500002    40.500002    40.046985    -3.320146 
     173        0.865    293.05534   -13129.284    9495.2852    9471.2482    9427.9616    9586.6458     194.9454   -91.859989   -125.53405    40.500002    40.500002    40.500002    40.085878    -3.320192 
     174         0.87    295.25418   -13129.296    9494.7447    9477.2806    9427.9335    9579.0199    192.47015   -56.860775   -123.03324    40.500002    40.500002    40.500002     39.92967   -3.3204792 
     175        0.875    298.90221   -13129.323    9444.2732    9431.7289    9386.4598    9514.6309    168.23355   -5.8852267   -114.94536    40.500002    40.500002    40.500002    39.614826   -3.3209572 
     176         0.88    303.21565   -13129.353    9362.1357    9360.5533    9319.4211    9406.4325    130.75619    49.978942   -98.923079    40.500002    40.500002    40.500002    39.230556   -3.3215221 
     177        0.885    307.26246    -13129.38    9266.4142    9273.4462    9251.0391    9274.7573    86.393887    101.82572    -75.89158    40.500002    40.500002    40.500002    38.866011   -3.3220518 
     178         0.89    310.18055     -13129.4    9176.5203     9180.108    9201.7372    9147.7158    35.932606    141.71201   -43.944944    40.500002    40.500002    40.500002    38.593819    -3.322434 
     179        0.895    311.33021   -13129.411    9112.2827    9099.4653    9184.5789    9052.8039   -17.323329    169.68164   -6.5146853    40.500002    40.500002    40.500002    38.470807   -3.3225852 
     180          0.9    305.20141   -13132.096    9042.0576    9002.9362    9156.5528    8966.6839   -64.110304    192.10842    39.216957    40.500002    40.500002    40.500002     38.53637   -3.3224646 
     181        0.905     302.5588    -13132.08    9050.2669    8978.2093    9198.5576    8974.0339   -96.208709    204.32907    86.589734    40.500002    40.500002    40.500002    38.765519   -3.3221189 
     182         0.91    298.93173   -13132.056    9078.6531     8971.577    9251.0349    9013.3474   -114.62093    204.90601    124.99579    40.500002    40.500002    40.500002    39.083477   -3.3216442 
     183        0.915    295.06541   -13132.032     9120.811    8981.6844     9307.738    9073.0105   -115.65263    189.82596    157.97126    40.500002    40.500002    40.500002    39.415169   -3.3211386 
     184         0.92    291.72973   -13132.013     9166.366    9002.2656    9360.3962    9136.4361   -96.198255    157.85423    182.35236    40.500002    40.500002    40.500002    39.682301   -3.3207028 
     185        0.925     289.5371   -13132.001    9200.2509    9020.1827    9393.5525    9187.0177   -55.730951    110.56927     188.9054    40.500002    40.500002    40.500002    39.833306   -3.3204166 
     186         0.93    288.83955       -13132    9209.1604    9027.6056    9392.8375    9207.0381   -6.9592756    59.811843    164.14738    40.500002    40.500002    40.500002     39.84391   -3.3203262 
     187        0.935    289.67681   -13132.009    9191.9002    9027.6119    9358.1069    9189.9819    42.011173    17.999382     112.2785    40.500002    40.500002    40.500002    39.718565   -3.3204364 
     188         0.94    291.76945   -13132.026    9152.8909    9027.5206    9293.7147    9137.4373    89.878022   -3.4528053    53.586645    40.500002    40.500002    40.500002    39.495413   -3.3207112 
     189        0.945    294.59032   -13132.045      9114.02    9040.5749    9225.5554    9075.9296    130.90271   -4.8509855   -3.6405139    40.500002    40.500002    40.500002    39.242856   -3.3210806 
     190         0.95    298.76817   -13131.424    9100.9099    9075.6464    9188.7321    9038.3512    156.25325    6.5372472    -51.89845    40.500002    40.500002    40.500002    39.037873   -3.3214653 
     191        0.955    301.31709    -13131.43    9088.2826    9097.9771    9156.8395    9010.0313    159.42768    25.936315   -87.484472    40.500002    40.500002    40.500002    38.929118   -3.3217961 
     192         0.96    303.19043   -13131.428     9087.126    9121.4356    9139.8396    9000.1027    146.87614    53.190873   -95.483817    40.500002    40.500002    40.500002    38.917537   -3.3220377 
     193        0.965    304.40685   -13131.423    9093.1443    9145.5093    9124.8977    9009.0258    127.02342    77.943639   -71.666718    40.500002    40.500002    40.500002    38.961606   -3.3221936 
     194         0.97    305.10929   -13131.417    9101.0331    9172.7389    9097.9047    9032.4557    100.32404    89.046254    -27.95422    40.500002    40.500002    40.500002    39.017352    -3.322283 
     195        0.975    305.46401   -13131.413     9101.465    9194.0034    9052.0016      9058.39    63.826339    88.955766     18.82693    40.500002    40.500002    40.500002    39.064554   -3.3223276 
     196         0.98    305.60836   -13131.409    9097.9392    9209.1658    9004.1812    9080.4706    19.743436    90.548528    56.096007    40.500002    40.500002    40.500002    39.109542   -3.3223453 
     197        0.985    305.67525   -13131.403    9093.8316    9214.8142    8970.3536    9096.3271   -15.348117    94.176607    83.345549    40.500002    40.500002    40.500002    39.154722   -3.3223525 
     198         0.99    305.81292   -13131.399    9086.0449    9208.7479    8944.0117     9105.375   -40.716435    94.259511    89.370288    40.500002    40.500002    40.500002    39.172884   -3.3223693 
     199        0.995    306.10328   -13131.402    9065.0906    9177.5881    8920.7197    9096.9639   -61.305398    83.301855    66.150735    40.500002    40.500002    40.500002    39.127329   -3.3224076 
     200            1     303.2175   -13133.077    9000.3851    9085.7852    8871.9787    9043.3914   -73.965734    55.789041    19.470287    40.500002    40.500002    40.500002    39.008923   -3.3224534 
Loop time of 0.772496 on 10 procs for 200 steps with 4000 atoms

Performance: 111.845 ns/day, 0.215 hours/ns, 258.901 timesteps/s
95.0% CPU use with 10 MPI tasks x no OpenMP threads

MPI task timing breakdown:
Section |  min time  |  avg time  |  max time  |%varavg| %total
---------------------------------------------------------------
Pair    | 0.47119    | 0.48495    | 0.5461     |   3.1 | 62.78
Neigh   | 0          | 0          | 0          |   0.0 |  0.00
Comm    | 0.010469   | 0.018557   | 0.027794   |   4.2 |  2.40
Output  | 0.19473    | 0.23691    | 0.25291    |   3.7 | 30.67
Modify  | 0.0030833  | 0.011055   | 0.023262   |   4.4 |  1.43
Other   |            | 0.02102    |            |       |  2.72

Nlocal:        400.000 ave         400 max         400 min
Histogram: 10 0 0 0 0 0 0 0 0 0
Nghost:        3182.00 ave        3182 max        3182 min
Histogram: 10 0 0 0 0 0 0 0 0 0
Neighs:        42578.0 ave       42578 max       42578 min
Histogram: 10 0 0 0 0 0 0 0 0 0

Total # of neighbors = 425780
Ave neighs/atom = 106.44500
Neighbor list builds = 0
Dangerous builds = 0
unfix 		1
unfix 		2

clear
next t
next i
next r
jump Timestep_determination.lmpin
#####################################################################################################################
# Course: Theory, Modelling, and Simulation of Microstructures (TMS) - Summer semester 2021
# Tutors: Dr. Arun Prakash, Vimal Muthusamy
# Description: Script to determine the timestep for a given interatomic potential
######################################################################################################################

# ------------------------ VARIABLES INITIALIZATION ----------------------------
variable i loop 6
variable t index 0.0001 0.0005 0.001 0.002 0.005 0.01
variable r index 10000 2000 1000 500 200 100 # No of steps for 1 ps

log log.time_step_$t.lammps
log log.time_step_0.01.lammps
