
# ------------------------ INITIALIZATION ----------------------------
clear
variable        latt0 equal 4.05000018187522  ### provide the lattice constant from your calculation
variable        lblock  equal 10

units           metal
atom_style      atomic
boundary        p  p  p
newton          off  off
processors      *  *  *


# ---------- STRUCTURE GENERATION ---------------------
lattice         fcc  ${latt0}  orient  x  1  0  0  orient  y  0  1  0  orient  z  0  0  1  origin  0.0    0.0    0.0
lattice         fcc  4.05000018187522  orient  x  1  0  0  orient  y  0  1  0  orient  z  0  0  1  origin  0.0    0.0    0.0
Lattice spacing in x,y,z = 4.0500002 4.0500002 4.0500002
region          sim_region  block  0  ${lblock}  0  ${lblock}  0  ${lblock}  units  lattice
region          sim_region  block  0  10  0  ${lblock}  0  ${lblock}  units  lattice
region          sim_region  block  0  10  0  10  0  ${lblock}  units  lattice
region          sim_region  block  0  10  0  10  0  10  units  lattice
create_box      1  sim_region
Created orthogonal box = (0.0000000 0.0000000 0.0000000) to (40.500002 40.500002 40.500002)
  1 by 2 by 5 MPI processor grid
create_atoms    1  box
Created 4000 atoms
  using lattice units in orthogonal box = (0.0000000 0.0000000 0.0000000) to (40.500002 40.500002 40.500002)
  create_atoms CPU = 0.000 seconds


# ------------------------ FORCE FIELDS ------------------------------
pair_style      eam/alloy ### TYPE OF POTENTIAL (eam (OR) eam/alloy)
pair_coeff      *  * /home03/nm95xule/TMS_SS2022Nan/Mishin_updated-Al-Co-2013.eam.alloy Al  ### POTENTIAL FILENAME

variable        natoms equal "count(all)"
variable        ecoh equal "pe/v_natoms"


# ------------------------- SETTINGS ---------------------------------
neighbor     	2.0 bin
neigh_modify 	delay 3
timestep 	$t
timestep 	0.002
thermo 		1
thermo_style 	custom step time temp etotal press pxx pyy pzz pxy pyz pxz lx ly lz fnorm v_ecoh

velocity 	all create 300.0 16723 rot yes dist gaussian


#--------------- ENERGY EQUILIBRATION --------------------------
fix 		2 all temp/rescale 10 300.0 300.0 1.0 0.5
fix 		1 all nve

run 		$r
run 		500
Neighbor list info ...
  update every 1 steps, delay 3 steps, check yes
  max neighbors/atom: 2000, page size: 100000
  master list distance cutoff = 8.499539
  ghost atom cutoff = 8.499539
  binsize = 4.2497695, bins = 10 10 10
  1 neighbor lists, perpetual/occasional/extra = 1 0 0
  (1) pair eam/alloy, perpetual
      attributes: half, newton off
      pair build: half/bin/newtoff
      stencil: full/bin/3d
      bin: standard
Per MPI rank memory allocation (min/avg/max) = 3.486 | 3.486 | 3.487 Mbytes
Step Time Temp TotEng Press Pxx Pyy Pzz Pxy Pyz Pxz Lx Ly Lz Fnorm v_ecoh 
       0            0          300   -13284.927    2493.3961    2492.1088    2488.1545    2499.9249    12.334899    1.2479016   -11.799564    40.500002    40.500002    40.500002 8.9842794e-15        -3.36 
       1        0.002    298.14095   -13284.925    2504.3229    2503.3108    2499.6142    2510.0436    12.305425    1.2187427   -11.676583    40.500002    40.500002    40.500002    3.3430705   -3.3597592 
       2        0.004    292.62519   -13284.919     2537.275    2537.0621    2534.1753    2540.5876    12.235436    1.1534857   -11.339353    40.500002    40.500002    40.500002    6.6541169    -3.359045 
       3        0.006    283.63288   -13284.909    2590.5747    2591.4638    2590.5675    2589.6927    12.193943   0.91040408   -10.805023    40.500002    40.500002    40.500002    9.9049728   -3.3578806 
       4        0.008    271.44678   -13284.898     2668.453    2669.6591    2673.8709    2661.8289    11.613691   0.78958708   -9.9979417    40.500002    40.500002    40.500002     13.08429    -3.356303 
       5         0.01    256.43079   -13284.885    2786.0127    2785.7424     2798.976    2773.3196    10.890135    1.0286634   -9.5053832    40.500002    40.500002    40.500002     16.19179   -3.3543592 
       6        0.012    239.02373   -13284.869    2955.6068    2952.2155    2978.0478    2936.5571     10.52546    1.6336915   -9.6496697    40.500002    40.500002    40.500002    19.214841   -3.3521057 
       7        0.014    219.74464    -13284.85    3178.4172    3170.4401    3212.1443     3152.667    10.115628    2.7630402   -10.663668    40.500002    40.500002    40.500002    22.123362   -3.3496097 
       8        0.016    199.19003   -13284.829    3447.6531    3433.7254    3494.2756    3414.9583    9.4098216    4.2840651   -12.719666    40.500002    40.500002    40.500002    24.877396   -3.3469483 
       9        0.018    178.01801   -13284.807    3751.4507    3730.1472    3812.3789    3711.8259      8.72958    6.0325144   -15.745708    40.500002    40.500002    40.500002    27.432446   -3.3442067 
      10         0.02    228.46127   -13247.806    4669.5657    4649.8044    4740.7539    4618.1389    7.8374533    13.382955   -19.600022    40.500002    40.500002    40.500002    29.743441    -3.341475 
      11        0.022    203.48001    -13247.78    5073.9233    5041.9837    5164.9526    5014.8336    7.4700195    15.568994    -25.43377    40.500002    40.500002    40.500002    32.226385   -3.3382402 
      12        0.024    179.32855   -13247.755    5482.7722    5436.8731    5594.9051    5416.5384    7.1759683    17.477796    -32.28392    40.500002    40.500002    40.500002    34.397275   -3.3351129 
      13        0.026    156.78088   -13247.732    5877.1847    5815.8626    6011.2003    5804.4912    6.8694207    18.826556   -39.951846    40.500002    40.500002    40.500002    36.215216   -3.3321935 
      14        0.028    136.53076   -13247.714    6239.6294    6161.8094    6395.6714    6161.4073    6.5856262    19.433445   -48.149396    40.500002    40.500002    40.500002    37.647739    -3.329572 
      15         0.03    119.15402     -13247.7    6554.9827    6459.9726    6732.7514     6472.224    6.2568576     19.17939   -56.672268    40.500002    40.500002    40.500002    38.672536   -3.3273229 
      16        0.032    105.07829   -13247.691    6811.2797    6698.5967    7010.0777    6725.1646    5.9751491    18.054474   -65.281057    40.500002    40.500002    40.500002    39.278909   -3.3255019 
      17        0.034    94.562769   -13247.689    7000.2807    6869.7828    7218.9629    6912.0964      5.87248    16.123463    -73.59351    40.500002    40.500002    40.500002    39.468661   -3.3241423 
      18        0.036    87.689705   -13247.692    7117.6459    6969.5341    7354.8044    7028.5992    5.9885619    13.481742   -81.281806    40.500002    40.500002    40.500002    39.256576   -3.3232549 
      19        0.038    84.367926     -13247.7    7163.1581    6997.9689    7417.0799    7074.4255    6.4274249    10.306142   -88.019173    40.500002    40.500002    40.500002    38.670321   -3.3228277 
      20         0.04    192.17396   -13191.976     8036.732    7860.2156     8292.052    7957.9285    4.3709889    30.666353   -87.001338    40.500002    40.500002    40.500002    37.749865   -3.3228282 
      21        0.042     195.1653   -13191.997    7940.1141    7740.9124     8214.515    7864.9147    6.4628645     25.78615    -93.65108    40.500002    40.500002    40.500002    36.070191   -3.3232201 
      22        0.044    199.12646   -13192.018    7824.3751     7604.847    8115.2234    7753.0548    8.8224144    21.863757   -98.588536    40.500002    40.500002    40.500002    34.334594   -3.3237372 
      23        0.046     203.4095   -13192.037    7703.6235    7466.7989    8008.0871    7635.9845    10.621704    19.433107   -101.90247    40.500002    40.500002    40.500002    32.651033   -3.3242954 
      24        0.048    207.42388   -13192.053     7592.004    7341.2381    7907.2017    7527.5723    11.248931    18.300058   -103.45698    40.500002    40.500002    40.500002    31.128886   -3.3248182 
      25         0.05     210.6688   -13192.065    7502.1579    7240.6206    7825.3419    7440.5113    10.092496    17.975277   -103.39279    40.500002    40.500002    40.500002    29.871531   -3.3252406 
      26        0.052    212.75611   -13192.073    7443.3665    7174.1082    7772.0138    7383.9773    6.9585134    18.242022   -102.05713    40.500002    40.500002    40.500002    28.966144   -3.3255124 
      27        0.054    213.42333   -13192.077    7421.2952     7147.613    7752.6438    7363.6286    2.0170673    18.871422   -100.06762    40.500002    40.500002    40.500002    28.472443   -3.3255996 
      28        0.056    212.53875   -13192.077    7439.0749    7163.9032    7770.7295    7382.5921   -4.7399857    19.833165   -98.253516    40.500002    40.500002    40.500002    28.413372   -3.3254852 
      29        0.058    210.09905   -13192.073    7495.3945     7221.919    7824.7929    7439.4716    -12.17948    20.591879   -97.289537    40.500002    40.500002    40.500002    28.771448    -3.325169 
      30         0.06    253.11108   -13167.828    7975.1633    7689.1654    8305.1697    7931.1548   -16.064395    25.268461   -99.429114    40.500002    40.500002    40.500002    29.493259   -3.3246661 
      31        0.062    247.13247   -13167.816    8112.3645    7835.2271    8434.0034    8067.8631   -23.010383    25.751817   -99.551849    40.500002    40.500002    40.500002    30.647794   -3.3238905 
      32        0.064    239.49733   -13167.801    8285.0702    8020.0187    8596.1597    8239.0321   -29.911087    27.037944   -99.422911    40.500002    40.500002    40.500002    32.085033      -3.3229 
      33        0.066    230.68532   -13167.783    8481.1919     8231.697    8779.6757     8432.203   -37.016463    29.615652   -98.633998    40.500002    40.500002    40.500002    33.683669   -3.3217567 
      34        0.068    221.25471   -13167.764    8687.9799    8456.9188    8971.6682    8635.3527   -43.571495    33.806593   -97.265812    40.500002    40.500002    40.500002    35.329161   -3.3205332 
      35         0.07    211.80928   -13167.744    8892.5132    8681.7742    9159.7014     8836.064   -48.607228    39.880881   -95.417811    40.500002    40.500002    40.500002    36.920006   -3.3193076 
      36        0.072    202.96145   -13167.725    9081.4153    8891.9436    9330.8892    9021.4132   -51.915158    47.135343   -93.812024    40.500002    40.500002    40.500002    38.370292   -3.3181595 
      37        0.074    195.29376   -13167.708    9241.6248    9073.1572    9472.5654    9179.1517   -53.547631    54.957672   -92.760745    40.500002    40.500002    40.500002    39.610742   -3.3171645 
      38        0.076    189.32255   -13167.695     9362.511    9213.8901    9574.5046    9299.1384   -53.644064    63.324754   -92.079261    40.500002    40.500002    40.500002    40.588142   -3.3163895 
      39        0.078    185.46624   -13167.685    9435.1026     9304.192     9628.374    9372.7418   -51.957251    72.065914   -91.917512    40.500002    40.500002    40.500002    41.264628   -3.3158888 
      40         0.08    242.01012   -13137.705    9934.6163    9817.2721    10117.772    9868.8044   -47.877478     87.96613   -98.539416    40.500002    40.500002    40.500002    41.617608   -3.3157006 
      41        0.082    242.75988   -13137.704    9900.3059    9797.1321    10063.501    9840.2841   -42.668744    97.991455   -100.30085    40.500002    40.500002    40.500002    41.695344   -3.3157973 
      42        0.084     245.4167   -13137.707    9823.3993    9731.2562    9967.9236    9771.0182   -36.283955    107.49572   -104.05425    40.500002    40.500002    40.500002    41.504906   -3.3161413 
      43        0.086    249.89583   -13137.713    9706.1891    9621.9946    9833.5229    9663.0498   -28.847019     115.9991   -109.82368    40.500002    40.500002    40.500002    41.064341   -3.3167217 
      44        0.088     256.0054   -13137.722    9553.7871    9474.3848    9665.3001    9521.6765   -21.002279    123.04094   -117.47851    40.500002    40.500002    40.500002    40.401687   -3.3175135 
      45         0.09    263.46353   -13137.733     9373.295    9295.6728    9470.5712    9353.6409   -13.138503    127.94499   -126.63594    40.500002    40.500002    40.500002    39.554082   -3.3184801 
      46        0.092    271.91968   -13137.746    9172.9315    9094.6484    9257.9608    9166.1853   -6.0304555    130.03598   -136.47497    40.500002    40.500002    40.500002    38.566226    -3.319576 
      47        0.094    280.97733   -13137.759    8961.6702    8880.9383     9035.982    8968.0903   0.23722836     129.3707   -145.85084    40.500002    40.500002    40.500002    37.488079   -3.3207498 
      48        0.096    290.21799   -13137.772    8748.8924    8664.0738    8813.9702    8768.6333    5.3995041    126.28037   -154.32235    40.500002    40.500002    40.500002    36.374173   -3.3219472 
      49        0.098    299.22643   -13137.784    8544.2517    8454.0873    8601.9633    8576.7047    9.2315998    121.14461    -161.2984    40.500002    40.500002    40.500002    35.281263   -3.3231144 
      50          0.1    303.80606   -13139.762    8324.8617    8227.8206    8378.2455    8368.5189    12.066839    113.98479   -165.95846    40.500002    40.500002    40.500002    34.264974   -3.3242008 
      51        0.102     311.1958   -13139.772    8162.7135    8058.7822    8213.0001    8216.3582    14.230422    106.13817   -169.44533    40.500002    40.500002    40.500002    33.381056   -3.3251581 
      52        0.104    317.36863   -13139.779    8030.8478    7920.3662    8078.0163    8094.1611    14.892269    97.954932   -171.72257    40.500002    40.500002    40.500002    32.667269   -3.3259576 
      53        0.106    322.09073   -13139.784    7933.4234    7817.1789    7976.7248    8006.3665    13.925016    89.257506   -172.75853    40.500002    40.500002    40.500002    32.161209   -3.3265691 
      54        0.108    325.19836   -13139.787    7872.0429    7751.2291    7911.2491    7953.6505    11.117795    80.399401   -173.31173    40.500002    40.500002    40.500002    31.888919   -3.3269714 
      55         0.11    326.60303   -13139.787     7848.091     7723.781    7883.4242    7937.0677    7.2595334    72.558567   -173.98206    40.500002    40.500002    40.500002     31.86249    -3.327153 
      56        0.112    326.29351   -13139.785    7860.7495    7734.1759    7892.3402    7955.7323    2.1284953    65.723933   -174.46155    40.500002    40.500002    40.500002    32.078882   -3.3271125 
      57        0.114    324.33501   -13139.781    7907.3784    7779.8272     7936.127    8006.1811   -4.5389445    59.578753   -174.15041    40.500002    40.500002    40.500002    32.520059   -3.3268584 
      58        0.116    320.86414   -13139.775    7985.5631    7857.2084    8012.9276    8086.5531    -11.79962    54.604314   -173.65934    40.500002    40.500002    40.500002    33.155473   -3.3264083 
      59        0.118    316.08255   -13139.767    8091.5526    7962.4224    8118.7398    8193.4958    -18.71481    50.514211   -172.63723    40.500002    40.500002    40.500002    33.945158   -3.3257884 
      60         0.12     305.1245   -13142.406    8177.9629    8049.0238    8205.8727    8278.9924    -25.26535    45.578338   -169.59632    40.500002    40.500002    40.500002    34.843084   -3.3250321 
      61        0.122    298.62711   -13142.396    8323.0242     8195.634    8351.6084    8421.8303   -30.658656    42.326829   -164.37928    40.500002    40.500002    40.500002    35.789626   -3.3241899 
      62        0.124    291.77684   -13142.385    8478.6514     8353.973    8508.6724    8573.3088   -34.991076    39.483966   -156.43203    40.500002    40.500002    40.500002    36.741653    -3.323302 
      63        0.126     284.9149   -13142.375    8636.5772     8515.312    8668.9932    8725.4263   -38.157294    36.352687   -145.74091    40.500002    40.500002    40.500002    37.653905   -3.3224126 
      64        0.128    278.37879   -13142.365    8789.4444    8672.4082    8825.7733    8870.1516   -40.288977    32.710896   -132.88871    40.500002    40.500002    40.500002    38.485477   -3.3215655 
      65         0.13    272.48429   -13142.356    8930.0179    8817.5775    8972.0026    9000.4736    -41.87343    28.011703   -118.24023    40.500002    40.500002    40.500002    39.201144   -3.3208016 
      66        0.132    267.50841   -13142.349    9051.6916    8944.2183    9100.7405    9110.1159   -43.061461    22.073072   -101.98713    40.500002    40.500002    40.500002    39.772808   -3.3201568 
      67        0.134    263.67469   -13142.344    9148.9957    9047.1821    9205.6559     9194.149   -43.804609    15.102542   -84.398225    40.500002    40.500002    40.500002    40.179869   -3.3196602 
      68        0.136    261.14195   -13142.342     9217.956    9122.4544    9282.3965    9249.0171   -44.326737    7.3918045   -65.681784    40.500002    40.500002    40.500002    40.409834   -3.3193322 
      69        0.138    259.99776   -13142.341    9256.5806    9167.7822    9328.8706     9273.089   -44.246436  -0.32599617   -46.167254    40.500002    40.500002    40.500002    40.458573   -3.3191842 
      70         0.14    280.12804   -13132.071    9429.5931    9345.5845    9509.1796    9434.0151   -44.377296   -4.6785668   -25.709704    40.500002    40.500002    40.500002    40.329508   -3.3192181 
      71        0.142    281.64575   -13132.075    9410.1921    9333.6723    9496.7322    9400.1718   -42.782252   -11.249091   -5.1535105    40.500002    40.500002    40.500002    40.036932   -3.3194152 
      72        0.144    284.14459   -13132.081    9369.1322      9300.31    9462.4067    9344.6798   -40.724376   -16.583732    14.641694    40.500002    40.500002    40.500002    39.618322   -3.3197395 
      73        0.146    287.45266   -13132.087    9309.9152    9248.6466    9409.4107    9271.6885   -38.463688   -20.583559    33.560109    40.500002    40.500002    40.500002    39.097295   -3.3201687 
      74        0.148    291.36067   -13132.095    9236.2678    9182.1894      9340.92    9185.6939   -36.452439   -23.281068     51.23372    40.500002    40.500002    40.500002    38.501764   -3.3206756 
      75         0.15    295.63405   -13132.102    9153.6146    9106.0038    9262.6334    9092.2067   -35.380174    -25.10423    67.210162    40.500002    40.500002    40.500002     37.86267   -3.3212297 
      76        0.152    300.02612    -13132.11    9067.6373    9026.3651    9179.7208     8996.826    -35.22759   -25.495851     81.46672    40.500002    40.500002    40.500002    37.212988   -3.3217993 
      77        0.154    304.29143   -13132.117    8983.0263    8948.5953    9096.9396     8903.544   -35.919355   -24.192269    93.576081    40.500002    40.500002    40.500002    36.586237   -3.3223523 
      78        0.156    308.19875   -13132.124     8904.877    8877.5353    9019.8983    8817.1973    -37.11731   -21.113814    102.32536    40.500002    40.500002    40.500002    36.015332   -3.3228588 
      79        0.158    311.54245   -13132.129    8838.8204    8819.1909    8954.5361    8742.7341   -38.924214   -16.161142    107.18284    40.500002    40.500002    40.500002    35.529973   -3.3232922 
      80         0.16     307.0755   -13135.791    8729.1087    8717.5473     8846.458    8623.3209   -41.974947   -9.3012114    108.37681    40.500002    40.500002    40.500002    35.155389   -3.3236304 
      81        0.162    308.84203   -13135.793    8695.0808    8691.3233    8814.1403    8579.7786   -43.866191   -2.1934505    104.92692    40.500002    40.500002    40.500002    34.908387   -3.3238593 
      82        0.164    309.75448   -13135.794    8677.4191    8681.0382    8798.9127    8552.3064   -44.752421     5.647961    97.908397    40.500002    40.500002    40.500002    34.791182   -3.3239775 
      83        0.166    309.77374   -13135.794     8676.473    8686.3559      8801.48    8541.5832   -44.034699    14.017653    88.086643    40.500002    40.500002    40.500002    34.808017   -3.3239799 
      84        0.168    308.90795   -13135.792    8691.1538    8705.9999    8820.9212    8546.5401   -41.188545    22.121346    76.244341    40.500002    40.500002    40.500002    34.955024   -3.3238676 
      85         0.17    307.21118   -13135.789     8720.005    8738.4795    8854.9867    8566.5488    -35.97886    30.109793    62.525576    40.500002    40.500002    40.500002    35.220584   -3.3236476 
      86        0.172    304.78056   -13135.785    8760.9859    8782.2881    8900.7538    8599.9157    -28.28608     37.80982    46.192788    40.500002    40.500002    40.500002     35.58623   -3.3233324 
      87        0.174    301.75069    -13135.78     8811.611    8835.2045    8955.3703    8644.2583   -18.470562    44.873677    27.530372    40.500002    40.500002    40.500002    36.028024   -3.3229396 
      88        0.176    298.28476   -13135.774    8869.2136    8894.6724    9015.6039    8697.3644   -6.7714446    51.514773    7.1241791    40.500002    40.500002    40.500002    36.518576   -3.3224902 
      89        0.178    294.56449   -13135.768     8930.875    8957.5058    9078.7418    8756.3773     6.627672    56.819428   -14.424847    40.500002    40.500002    40.500002    37.030143    -3.322008 
      90         0.18    295.39008   -13133.379    9032.9523    9061.0891     9180.801    8856.9667    21.702217    58.646101   -36.159033    40.500002    40.500002    40.500002    37.535973   -3.3215174 
      91        0.182    291.67208   -13133.373    9097.1855    9125.4533    9244.5916    8921.5116    36.750608    57.779101   -56.879828    40.500002    40.500002    40.500002    38.017753   -3.3210355 
      92        0.184    288.20214   -13133.368    9158.2822    9185.6931    9304.3658    8984.7877    50.510302    53.388947   -75.661147    40.500002    40.500002    40.500002    38.452276   -3.3205858 
      93        0.186    285.14503   -13133.364    9212.2868     9237.889    9356.2776    9042.6937    62.198881    46.188012   -92.005201    40.500002    40.500002    40.500002    38.821245   -3.3201897 
      94        0.188    282.64036   -13133.361    9256.1131     9279.289    9396.7826    9092.2679      71.8052     36.43926   -105.80836    40.500002    40.500002    40.500002    39.110626   -3.3198652 
      95         0.19    280.79705   -13133.358    9287.1601    9307.3832    9422.7648    9131.3325    79.238245    23.897013   -116.99752    40.500002    40.500002    40.500002    39.310223   -3.3196264 
      96        0.192    279.68889   -13133.357    9303.9453    9320.5796    9433.5609    9157.6955    84.274116    9.4975617   -125.03468    40.500002    40.500002    40.500002    39.414127   -3.3194829 
      97        0.194     279.3514   -13133.358    9306.4306    9318.4363    9430.0571    9170.7983    86.764215   -6.2017635   -129.68655    40.500002    40.500002    40.500002    39.421167   -3.3194394 
      98        0.196    279.78066   -13133.359    9294.9419    9301.1166     9412.752    9170.9572    86.267932   -23.627652   -131.49583    40.500002    40.500002    40.500002    39.334564   -3.3194952 
      99        0.198    280.93575   -13133.361    9269.2933    9268.0891    9381.9313    9157.8596    83.032182   -42.973355   -130.62427    40.500002    40.500002    40.500002     39.16117    -3.319645 
     100          0.2    291.37158   -13128.904    9301.0556    9292.3343    9408.9213    9201.9112      76.0096    -63.23092   -126.14865    40.500002    40.500002    40.500002    38.911176   -3.3198794 
     101        0.202    293.70569   -13128.908    9249.2484    9231.2088    9353.8546    9162.6818    66.761306   -86.606142   -119.89196    40.500002    40.500002    40.500002    38.599357    -3.320182 
     102        0.204    296.35575   -13128.913    9191.2273    9163.1325    9293.7999    9116.7494    54.844035   -110.88215   -111.77183    40.500002    40.500002    40.500002    38.251924   -3.3205256 
     103        0.206    299.18617   -13128.917    9130.2997    9091.4109    9232.4639    9067.0243    40.967586   -135.03242   -102.96323    40.500002    40.500002    40.500002    37.886782   -3.3208924 
     104        0.208    302.05626   -13128.921    9069.8908    9020.0608    9172.9732    9016.6384    25.949718   -157.63522   -93.971664    40.500002    40.500002    40.500002    37.522768   -3.3212644 
     105         0.21    304.82793   -13128.925    9013.5606    8952.7635    9119.3482    8968.5701    10.477847   -177.17525   -84.965983    40.500002    40.500002    40.500002    37.178989   -3.3216236 
     106        0.212    307.37297   -13128.929    8964.1527     8892.037    9074.8541    8925.5671   -5.8157748   -192.90149   -75.839917    40.500002    40.500002    40.500002    36.873715   -3.3219534 
     107        0.214    309.57969   -13128.932    8923.1912    8839.2672      9040.92    8889.3864    -23.19811   -205.17477   -66.119577    40.500002    40.500002    40.500002    36.622816   -3.3222392 
     108        0.216    311.35876   -13128.934    8891.6458    8794.9764    9018.6289    8861.3321   -41.349766   -214.77994   -56.672948    40.500002    40.500002    40.500002    36.438267   -3.3224696 
     109        0.218    312.64669   -13128.935    8870.5438    8760.2979    9009.0673    8842.2663    -60.01808   -222.30775   -47.946214    40.500002    40.500002    40.500002    36.328032   -3.3226363 
     110         0.22    306.70353     -13132.4     8803.996    8681.1734    8956.1203    8774.6942   -79.284717   -230.21261   -40.057349    40.500002    40.500002    40.500002    36.296028   -3.3227347 
     111        0.222     306.9674   -13132.399    8802.3116    8665.8002    8970.3868    8770.7476   -99.631647   -233.67455   -33.399804    40.500002    40.500002    40.500002    36.336544   -3.3227686 
     112        0.224    306.80307   -13132.398    8807.2413    8657.6552    8992.2514    8771.8171   -121.60599    -235.1364   -28.422699    40.500002    40.500002    40.500002    36.438796    -3.322747 
     113        0.226    306.25225   -13132.396    8817.8326    8656.7346    9019.2569    8777.5062   -143.28553   -234.78708   -24.214729    40.500002    40.500002    40.500002    36.593143   -3.3226753 
     114        0.228    305.37611   -13132.394    8833.0738    8662.8858    9048.8793    8787.4563   -163.45497   -232.86113   -20.323327    40.500002    40.500002    40.500002    36.786982   -3.3225615 
     115         0.23    304.24977   -13132.391    8851.3743    8675.0485     9078.521    8800.5534   -181.46612    -229.1531   -16.332556    40.500002    40.500002    40.500002    37.006784   -3.3224153 
     116        0.232    302.95712   -13132.388    8871.5931    8692.3686    9106.4611    8815.9496   -196.91017   -223.88061   -12.574931    40.500002    40.500002    40.500002    37.239061   -3.3222475 
     117        0.234    301.58629   -13132.385    8893.0478    8714.1336    9132.3099    8832.6997   -209.18298   -216.83893   -8.9761506    40.500002    40.500002    40.500002       37.471   -3.3220697 
     118        0.236    300.22475   -13132.383    8915.2337    8740.3726    9155.4533    8849.8751   -217.49604    -207.5496    -5.811803    40.500002    40.500002    40.500002    37.690924   -3.3218931 
     119        0.238    298.95435   -13132.381    8936.8696    8770.4811    9174.0183    8866.1093   -221.14503   -195.90672   -3.6419845    40.500002    40.500002    40.500002    37.889484   -3.3217284 
     120         0.24    298.92401   -13131.823     8965.261    8812.3198    9195.0733    8888.3899   -220.21974   -181.29461   -3.0511556    40.500002    40.500002    40.500002    38.058874   -3.3215849 
     121        0.242    298.03502   -13131.821    8981.2401    8846.2725    9199.7919    8897.6559   -215.18931   -163.71122   -4.3604797    40.500002    40.500002    40.500002    38.193822   -3.3214697 
     122        0.244    297.40749    -13131.82    8992.9149    8880.3929    9196.8595    8901.4925   -206.23254   -143.32806   -6.4808192    40.500002    40.500002    40.500002    38.290166   -3.3213883 
     123        0.246     297.0761   -13131.819     8999.832    8913.8621    9186.7778     8898.856   -194.55923   -120.94774   -8.7222235    40.500002    40.500002    40.500002    38.344799   -3.3213454 
     124        0.248    297.06016   -13131.819    9001.4253    8945.3995    9169.2759    8889.6006   -180.66575   -97.480691   -10.655128    40.500002    40.500002    40.500002    38.356289   -3.3213433 
     125         0.25    297.36375    -13131.82    8997.3233    8973.3266    9144.5346    8874.1087   -165.32858   -73.576061   -11.783734    40.500002    40.500002    40.500002    38.324599   -3.3213826 
     126        0.252    297.97584    -13131.82    8987.1442    8995.9772    9112.6873    8852.7681   -149.07801   -49.747411   -11.353082    40.500002    40.500002    40.500002    38.250959   -3.3214619 
     127        0.254    298.86893   -13131.822     8971.188    9012.5635    9074.4967    8826.5037   -132.55623   -26.373353   -9.0951832    40.500002    40.500002    40.500002    38.138709   -3.3215776 
     128        0.256    300.00006   -13131.824    8950.0414    9022.6774    9031.4012    8796.0454   -116.92811   -4.4956247   -5.3430367    40.500002    40.500002    40.500002    37.993082   -3.3217242 
     129        0.258    301.31399   -13131.826    8924.8761     9026.298    8985.1832     8763.147   -103.70049    14.819988 -0.032990003    40.500002    40.500002    40.500002     37.82079   -3.3218946 
     130         0.26    301.37297   -13132.538    8886.8068    9013.2196    8927.8267     8719.374    -93.52478    30.835468    6.2048965    40.500002    40.500002    40.500002    37.630194   -3.3220802 
     131        0.262    302.85712    -13132.54    8861.2653    9008.3648    8886.0522     8689.379   -87.219592    42.980157    13.887451    40.500002    40.500002    40.500002    37.430437   -3.3222725 
     132        0.264    304.33068   -13132.542    8838.9973    9002.2949    8850.5994    8664.0976   -85.327488     51.37802    23.790449    40.500002    40.500002    40.500002     37.23056   -3.3224635 
     133        0.266    305.71847   -13132.544    8821.4238    8997.0851    8822.7364    8644.4498   -88.253979    55.997713    35.252025    40.500002    40.500002    40.500002    37.040837   -3.3226435 
     134        0.268    306.94921   -13132.546    8809.3456    8993.1988    8803.6475    8631.1906   -95.511043    56.969836    47.808759    40.500002    40.500002    40.500002    36.871149    -3.322803 
     135         0.27    307.95916   -13132.548    8803.3423    8991.2907    8794.1346    8624.6017   -106.37597    54.794009     61.19298    40.500002    40.500002    40.500002    36.730422   -3.3229339 
     136        0.272    308.69549   -13132.549    8803.0139    8991.2589    8794.2587    8623.5241   -119.86815    49.084432    74.993467    40.500002    40.500002    40.500002    36.626038   -3.3230294 
     137        0.274    309.11872    -13132.55    8807.3769    8992.7377    8802.6823    8626.7106   -135.72956    40.773596    88.847861    40.500002    40.500002    40.500002    36.563253   -3.3230843 
     138        0.276    309.20521    -13132.55    8816.4178    8995.2857    8819.3295    8634.6382   -153.42668    30.542041    102.21532    40.500002    40.500002    40.500002    36.545006   -3.3230955 
     139        0.278     308.9488    -13132.55     8830.258    8999.0435     8844.166    8647.5644   -172.20531    19.026281    114.24939    40.500002    40.500002    40.500002    36.571564   -3.3230623 
     140         0.28    304.18041    -13134.71    8814.1576    8969.5982    8841.1737    8631.7008   -190.76282    6.6729402    124.42251    40.500002    40.500002    40.500002    36.640484   -3.3229861 
     141        0.282    303.32044   -13134.709    8836.2887     8976.631    8879.1255    8653.1096   -209.87433   -6.7476604    132.27968    40.500002    40.500002    40.500002    36.743114   -3.3228746 
     142        0.284    302.24956   -13134.707    8860.9436     8984.089    8921.2656    8677.4762   -228.30136   -20.730687    137.41277    40.500002    40.500002    40.500002    36.870428   -3.3227359 
     143        0.286    301.01548   -13134.706    8886.8651    8990.8475    8965.5179    8704.2299   -245.56548   -34.949178    139.61451    40.500002    40.500002    40.500002    37.015055    -3.322576 
     144        0.288    299.67242   -13134.704    8913.1543    8996.7447    9010.5357    8732.1824   -261.64955   -49.116589    138.90008    40.500002    40.500002    40.500002    37.169126    -3.322402 
     145         0.29    298.27674   -13134.702    8939.3996    9002.5536    9054.6957    8760.9496   -276.14463   -62.911189    135.00276    40.500002    40.500002    40.500002    37.324922   -3.3222212 
     146        0.292    296.88335   -13134.701    8963.8252    9006.7773    9095.2778    8789.4205   -288.70036   -75.672732    128.25209    40.500002    40.500002    40.500002    37.475438   -3.3220407 
     147        0.294    295.54375   -13134.699    8984.9071    9007.4428    9130.2787    8816.9999   -300.26375   -87.450486    119.56094    40.500002    40.500002    40.500002    37.615258   -3.3218673 
     148        0.296    294.30549   -13134.698    9001.4942    9003.3496    9158.0284    8843.1046   -311.37424   -98.154891    109.85434    40.500002    40.500002    40.500002    37.739393   -3.3217069 
     149        0.298    293.21094   -13134.697    9013.7086     8994.978    9177.7827    8868.3651   -321.70649   -107.61177    99.843042    40.500002    40.500002    40.500002    37.843837   -3.3215652 
     150          0.3    296.14763   -13132.705    9054.0052     9015.559    9222.8539    8923.6027   -331.13359   -116.33377    90.195554    40.500002    40.500002    40.500002    37.925934   -3.3214467 
     151        0.302    295.40792   -13132.704    9059.0507    9001.4327    9228.6166    8947.1028    -339.5075   -123.27758    80.833603    40.500002    40.500002    40.500002    37.986915   -3.3213509 
     152        0.304    294.84396   -13132.704    9061.1827    8985.6488    9228.7539    8969.1454   -345.58019   -129.16271    72.591946    40.500002    40.500002    40.500002    38.027937    -3.321278 
     153        0.306    294.46636   -13132.704    9061.5112    8969.9064    9224.9543    8989.6729   -349.45858   -133.98464    65.621163    40.500002    40.500002    40.500002    38.049769   -3.3212292 
     154        0.308    294.27713   -13132.704    9060.5995    8955.1511    9217.7183     9008.929   -351.34011   -137.54048    60.902204    40.500002    40.500002    40.500002    38.054684   -3.3212048 
     155         0.31    294.27131   -13132.704    9058.0451    8941.5385     9206.179    9026.4176   -351.16868   -139.89515    59.360294    40.500002    40.500002    40.500002    38.045528   -3.3212042 
     156        0.312    294.43992   -13132.705    9052.7741    8928.2782    9189.1198    9040.9243   -348.84265   -141.67595    60.091297    40.500002    40.500002    40.500002    38.024798    -3.321226 
     157        0.314    294.77192   -13132.705    9044.7309     8915.294    9166.8056    9052.0929   -343.77894   -143.20039    62.674074    40.500002    40.500002    40.500002     37.99434    -3.321269 
     158        0.316    295.25384   -13132.706    9034.6002    8902.8254    9140.7293    9060.2461   -335.61952   -144.06211    66.839766    40.500002    40.500002    40.500002    37.955587   -3.3213315 
     159        0.318    295.86904   -13132.706    9022.2964    8889.6094    9111.3775    9065.9023   -324.03806   -143.79714    72.058824    40.500002    40.500002    40.500002    37.909641   -3.3214111 
     160         0.32    298.29898   -13131.828    9021.6863    8889.3356    9092.5217    9083.2015   -309.49562   -142.26274    77.783737    40.500002    40.500002    40.500002    37.857412   -3.3215055 
     161        0.322    299.11118   -13131.829      9005.06    8874.2197    9056.6553    9084.3049   -292.98317   -138.64746    83.066205    40.500002    40.500002    40.500002    37.800651   -3.3216106 
     162        0.324     299.9708   -13131.829    8987.6185    8859.4776    9020.0836    9083.2943   -275.81228   -133.07827    87.548126    40.500002    40.500002    40.500002    37.740881   -3.3217219 
     163        0.326    300.85567    -13131.83    8970.2315    8845.9716    8984.1745    9080.5484   -258.85616   -126.53691    90.306422    40.500002    40.500002    40.500002    37.677886   -3.3218364 
     164        0.328     301.7435   -13131.831    8953.3345    8833.6273    8950.0251    9076.3509   -242.71506   -119.07379    91.249136    40.500002    40.500002    40.500002    37.611305   -3.3219513 
     165         0.33    302.60978   -13131.832     8937.379      8823.09    8918.3218    9070.7251   -227.23908     -111.435    90.511701    40.500002    40.500002    40.500002    37.541503   -3.3220635 
     166        0.332    303.42719   -13131.832    8922.3745    8815.2855    8888.8928    9062.9452   -212.29565   -105.56146    88.497677    40.500002    40.500002    40.500002    37.470262   -3.3221694 
     167        0.334    304.16657   -13131.833    8908.1443    8810.4239    8862.0173    9051.9915   -198.21496   -102.05538    85.251737    40.500002    40.500002    40.500002    37.400914   -3.3222651 
     168        0.336    304.79887   -13131.834    8895.2277     8808.401    8838.3117    9038.9705   -185.15468   -99.377965    80.938393    40.500002    40.500002    40.500002    37.337729   -3.3223471 
     169        0.338    305.29727   -13131.835    8884.2696    8809.2034    8818.4109    9025.1946   -173.46004   -96.965341    76.025621    40.500002    40.500002    40.500002    37.285127   -3.3224117 
     170         0.34    302.81926   -13133.293    8851.9381    8788.8002    8779.3633    8987.6507    -162.2543   -95.000265     69.86996    40.500002    40.500002    40.500002    37.247493   -3.3224559 
     171        0.342    303.00235   -13133.293    8845.6041    8793.0045    8769.5776    8974.2303   -152.70227   -92.662046    64.532896    40.500002    40.500002    40.500002    37.227616   -3.3224797 
     172        0.344    303.03478   -13133.294    8841.3903    8797.1076    8764.9343    8962.1289   -143.87611   -90.770823    59.922072    40.500002    40.500002    40.500002    37.226618    -3.322484 
     173        0.346    302.91223   -13133.294    8838.7809    8800.3544    8764.9101    8951.0782   -135.25466   -89.510677    56.470319    40.500002    40.500002    40.500002     37.24638   -3.3224681 
     174        0.348    302.63934   -13133.293    8837.4688    8802.5503    8769.3144    8940.5417   -127.27603   -88.692061    54.064546    40.500002    40.500002    40.500002    37.287007   -3.3224327 
     175         0.35    302.22957   -13133.292    8837.1768    8803.2248    8777.6111    8930.6945   -120.00209   -88.044727    52.762038    40.500002    40.500002    40.500002    37.347136   -3.3223796 
     176        0.352    301.70517   -13133.292    8837.5572    8800.9691    8790.1775     8921.525    -113.2856   -87.484055    53.083266    40.500002    40.500002    40.500002    37.423324   -3.3223116 
     177        0.354    301.09599    -13133.29    8838.2664      8795.24    8806.7992    8912.7602    -107.1901   -86.926416    55.417081    40.500002    40.500002    40.500002    37.510362   -3.3222326 
     178        0.356    300.43614   -13133.289    8839.9596    8787.3932    8827.2677    8905.2181   -100.90107   -86.409623    58.862658    40.500002    40.500002    40.500002    37.602394    -3.322147 
     179        0.358    299.76039   -13133.288    8842.6268    8778.6097    8850.1022    8899.1685   -94.074161   -86.007555    63.114189    40.500002    40.500002    40.500002    37.693456   -3.3220595 
     180         0.36     299.1017   -13133.287     8845.822    8769.4006    8874.0952    8893.9703   -86.454513   -85.516294    68.082811    40.500002    40.500002    40.500002    37.778825   -3.3219741 
     181        0.362    298.48939   -13133.287    8849.0567    8759.7813    8898.1598    8889.2289   -78.113121   -84.606415    73.430309    40.500002    40.500002    40.500002     37.85464   -3.3218948 
     182        0.364    297.94823   -13133.286    8852.0072    8749.8698    8920.4101    8885.7415   -69.617497   -82.702565    79.008609    40.500002    40.500002    40.500002    37.918438   -3.3218247 
     183        0.366    297.49831   -13133.286     8855.222    8740.6634    8940.0707    8884.9318   -60.963941   -80.409973    84.628903    40.500002    40.500002    40.500002    37.968619   -3.3217665 
     184        0.368    297.15486   -13133.285    8858.2982    8733.0549    8956.3619    8885.4779   -51.965962   -77.526349     89.70755    40.500002    40.500002    40.500002    38.003882    -3.321722 
     185         0.37    296.92794   -13133.285    8861.2903    8728.2722    8968.8639    8886.7348    -42.64626   -74.190681    94.913507    40.500002    40.500002    40.500002    38.023965   -3.3216927 
     186        0.372    296.82225   -13133.285    8864.8118    8727.5995    8977.5806    8889.2555   -33.040569   -70.682579    100.23002    40.500002    40.500002    40.500002    38.029433    -3.321679 
     187        0.374    296.83655   -13133.286    8868.6423    8731.4592    8982.2703    8892.1974   -22.851923   -67.028381    105.36413    40.500002    40.500002    40.500002    38.021576    -3.321681 
     188        0.376    296.96448   -13133.286    8872.6708    8740.2206    8982.7455    8895.0464   -12.178931   -63.558429    109.62193    40.500002    40.500002    40.500002    38.001613   -3.3216976 
     189        0.378    297.19591   -13133.286    8876.6918    8753.2165    8979.4268    8897.4321  -0.94964886   -60.843319    112.58693    40.500002    40.500002    40.500002    37.971174   -3.3217276 
     190         0.38     298.7587   -13132.645    8891.0535    8780.8497    8982.6939    8909.6168    10.710984     -58.7328    114.72885    40.500002    40.500002    40.500002      37.9318   -3.3217693 
     191        0.382    299.14645   -13132.646    8894.4297    8799.9738    8972.1584    8911.1571    23.106008   -56.992833    116.20509    40.500002    40.500002    40.500002    37.885952   -3.3218195 
     192        0.384    299.57233   -13132.647     8896.883    8819.5711    8958.8713    8912.2067    35.750801   -55.048903     116.9558    40.500002    40.500002    40.500002    37.836705   -3.3218747 
     193        0.386    300.01456   -13132.647    8898.8595    8838.4547    8944.2544    8913.8695    48.064477   -52.154332    117.44724    40.500002    40.500002    40.500002    37.787269   -3.3219321 
     194        0.388     300.4513   -13132.648    8900.9677    8855.8771    8929.9217    8917.1042    59.928313   -48.226908    117.74221    40.500002    40.500002    40.500002    37.740696   -3.3219887 
     195         0.39    300.86317   -13132.649    8904.2975     8871.952    8918.0142    8922.9263     70.72903   -43.782436    117.79825    40.500002    40.500002    40.500002    37.699619    -3.322042 
     196        0.392    301.23425   -13132.649    8909.8515    8887.4719    8909.6098     8932.473     79.93355   -38.498149    116.80729    40.500002    40.500002    40.500002    37.666122   -3.3220901 
     197        0.394    301.55234   -13132.649    8917.5446    8902.2605    8903.8756    8946.4978    87.522245   -31.305493    114.77077    40.500002    40.500002    40.500002    37.641667   -3.3221312 
     198        0.396    301.80924   -13132.649    8926.4259    8915.4298    8899.7092    8964.1387    93.596279   -22.483532    111.93997    40.500002    40.500002    40.500002    37.626831   -3.3221645 
     199        0.398    302.00181   -13132.649    8936.1168    8925.8946    8897.4782    8984.9775    98.309798   -11.942922    108.05978    40.500002    40.500002    40.500002    37.620747   -3.3221893 
     200          0.4    301.06583     -13133.2    8937.0472    8924.4513    8887.3888    8999.3016    101.33908   0.22484246    102.36642    40.500002    40.500002    40.500002    37.621368    -3.322206 
     201        0.402    301.14462     -13133.2    8945.8926    8928.5896    8885.0664    9024.0219    102.74686    13.854849    94.771068    40.500002    40.500002    40.500002    37.625216   -3.3222162 
     202        0.404    301.18594   -13133.199    8953.4952    8929.7765     8880.804     9049.905    102.84448    28.200181     85.03474    40.500002    40.500002    40.500002    37.629004   -3.3222214 
     203        0.406    301.19633   -13133.199    8960.7291    8929.2041    8875.7698    9077.2135    102.30064    42.227506     73.60481    40.500002    40.500002    40.500002     37.63079   -3.3222227 
     204        0.408     301.1821   -13133.199    8967.8727    8927.6069    8870.7141    9105.2971    101.52284    55.519518    60.611474    40.500002    40.500002    40.500002     37.62921   -3.3222208 
     205         0.41    301.14869   -13133.199    8974.7648    8925.1184    8865.8899     9133.286    101.03419     67.06699    47.147736    40.500002    40.500002    40.500002    37.623691   -3.3222165 
     206        0.412    301.09824   -13133.199    8980.7504    8921.0051    8861.5691    9159.6769    101.38233    76.339838    34.330559    40.500002    40.500002    40.500002    37.614695   -3.3222099 
     207        0.414    301.02966   -13133.199    8985.4384    8915.7165    8857.3046    9183.2941    103.16154    83.398805     22.40816    40.500002    40.500002    40.500002    37.604043   -3.3222011 
     208        0.416    300.94107   -13133.199    8988.1503    8909.4873    8852.2928    9202.6708    106.21988    88.082429    10.629205    40.500002    40.500002    40.500002    37.593607   -3.3221896 
     209        0.418    300.83061   -13133.199    8988.0072    8901.2053    8846.3795    9216.4367    110.85261    90.067352  -0.69467315    40.500002    40.500002    40.500002    37.585225   -3.3221754 
     210         0.42    300.69665   -13133.199     8985.423    8890.6153    8840.8222    9224.8316    117.17582    89.821735   -10.251263    40.500002    40.500002    40.500002    37.580504   -3.3221581 
     211        0.422    300.53867   -13133.199     8980.852    8877.7482    8836.4566    9228.3512    124.12865    87.803746   -17.546604    40.500002    40.500002    40.500002     37.58059   -3.3221376 
     212        0.424    300.35877   -13133.199    8975.1771    8863.7429    8833.7551    9228.0333    131.30945    84.435968   -22.443206    40.500002    40.500002    40.500002    37.585924   -3.3221143 
     213        0.426    300.16137   -13133.198    8968.3304    8848.7844    8832.4055    9223.8014    137.77773    80.416415   -25.831081    40.500002    40.500002    40.500002    37.595632   -3.3220888 
     214        0.428    299.95133   -13133.198    8960.6509    8832.6003    8832.9647    9216.3876    143.40276    75.577722   -27.363598    40.500002    40.500002    40.500002    37.608641   -3.3220616 
     215         0.43    299.73311   -13133.198    8951.8834    8814.8704    8834.7495    9206.0301    147.60057    70.622216   -27.188041    40.500002    40.500002    40.500002    37.623775   -3.3220334 
     216        0.432    299.51136   -13133.198    8942.5015    8795.8875    8838.0037    9193.6134    149.89634     66.66572   -26.171608    40.500002    40.500002    40.500002    37.639796   -3.3220047 
     217        0.434    299.29118   -13133.198    8932.6769    8776.1604    8842.6168    9179.2536    150.48935    64.424168   -25.208844    40.500002    40.500002    40.500002    37.654921   -3.3219762 
     218        0.436    299.07778   -13133.198    8923.0975    8757.0462    8848.9497    9163.2968    150.60443    63.493663   -24.147652    40.500002    40.500002    40.500002    37.667804   -3.3219486 
     219        0.438    298.87572   -13133.198    8914.4425    8739.6501    8856.8222    9146.8554     150.8498    63.132301   -22.329856    40.500002    40.500002    40.500002    37.677494   -3.3219224 
     220         0.44    299.34377   -13132.858    8911.4411     8728.973     8870.643    9134.7072    151.54913    63.513198   -20.555823    40.500002    40.500002    40.500002    37.683277   -3.3218981 
     221        0.442    299.16479   -13132.858    8902.9068    8713.3493    8880.1599    9115.2111    153.60502    64.845595   -18.899465    40.500002    40.500002    40.500002    37.685795    -3.321875 
     222        0.444    298.98898   -13132.859    8894.5701    8698.3563    8891.1167    9094.2373    156.58363    66.542264   -17.145612    40.500002    40.500002    40.500002    37.686537   -3.3218523 
     223        0.446     298.8141   -13132.859    8886.9914    8684.7291    8904.0367    9072.2085    159.91766     68.18029   -15.613224    40.500002    40.500002    40.500002    37.686769   -3.3218298 
     224        0.448    298.63794   -13132.859    8881.3408    8674.0171    8919.8098    9050.1954    163.30183     68.99461   -14.387721    40.500002    40.500002    40.500002    37.687524    -3.321807 
     225         0.45    298.45881   -13132.859    8879.0703    8668.1796    8939.1155    9029.9157    166.41851    67.495245   -13.515065    40.500002    40.500002    40.500002    37.689838   -3.3217839 
     226        0.452     298.2755   -13132.859    8880.5705    8668.2642    8961.7835    9011.6638    168.39209    62.291367   -13.555226    40.500002    40.500002    40.500002    37.694562   -3.3217602 
     227        0.454    298.08732   -13132.859    8885.1769    8674.1672    8986.1426    8995.2209    169.10698     53.27045     -14.8347    40.500002    40.500002    40.500002    37.702124   -3.3217359 
     228        0.456    297.89433   -13132.859    8892.9924    8685.9678    9011.6617    8981.3476     168.8606    40.911785   -16.500564    40.500002    40.500002    40.500002    37.713646    -3.321711 
     229        0.458    297.69667   -13132.859    8904.3177    8703.1308    9038.4582    8971.3641    168.05279    25.774904    -18.76278    40.500002    40.500002    40.500002     37.73015   -3.3216855 
     230         0.46    298.74697   -13132.211    8929.2845    8735.3622    9076.0626    8976.4288    167.54161    8.2276801   -22.392782    40.500002    40.500002    40.500002    37.753154   -3.3216593 
     231        0.462    298.53202   -13132.211    8946.2174    8759.7643    9102.9699     8975.918    166.89004    -10.94728   -27.058049    40.500002    40.500002    40.500002    37.784877   -3.3216315 
     232        0.464    298.30308   -13132.211    8964.3932      8785.31    9128.9684    8978.9011    166.31891   -31.312801   -32.380482    40.500002    40.500002    40.500002    37.826555   -3.3216018 
     233        0.466    298.07077   -13132.211    8981.4293    8809.5631    9151.9813    8982.7435    165.72491   -51.744248   -37.930983    40.500002    40.500002    40.500002    37.877478   -3.3215717 
     234        0.468    297.84932    -13132.21    8996.4521    8831.6529     9171.098    8986.6055    164.47485   -71.215591   -43.907157    40.500002    40.500002    40.500002    37.936274   -3.3215429 
     235         0.47    297.65631    -13132.21    9009.8727    8851.5832    9186.8679     8991.167    162.42689   -89.293781    -50.13294    40.500002    40.500002    40.500002    38.000559   -3.3215179 
     236        0.472    297.51131   -13132.209    9021.6334    8868.8109    9199.6643     8996.425    159.14795   -106.36586   -55.761654    40.500002    40.500002    40.500002    38.066749    -3.321499 
     237        0.474    297.43431   -13132.208    9031.0721    8882.4994    9208.6347    9002.0822    154.17996   -122.37906    -59.42471    40.500002    40.500002    40.500002    38.130498   -3.3214889 
     238        0.476    297.44485   -13132.208    9037.6805     8892.273    9213.3442    9007.4242     146.8525    -136.3484   -61.229745    40.500002    40.500002    40.500002    38.186997   -3.3214901 
     239        0.478    297.56029   -13132.208    9041.1515    8898.0023     9213.685    9011.7671    137.27547   -147.72449   -62.134971    40.500002    40.500002    40.500002    38.231715    -3.321505 
     240         0.48    298.89721   -13131.637    9050.8105    8908.6783    9219.3924    9024.3609    125.97034   -156.56297   -62.406043    40.500002    40.500002    40.500002    38.260147   -3.3215351 
     241        0.482    299.25226   -13131.637    9048.5479    8905.8017     9212.605    9027.2371    113.17746   -162.65776   -62.342426    40.500002    40.500002    40.500002    38.268902    -3.321581 
     242        0.484    299.72225   -13131.637    9042.9875    8898.8344    9201.1758    9028.9523    99.495464   -166.47531   -61.213244    40.500002    40.500002    40.500002    38.255854   -3.3216418 
     243        0.486    300.29925   -13131.638     9033.556    8887.7086    9185.1555     9027.804     85.86608   -168.55151   -58.463878    40.500002    40.500002    40.500002    38.220719   -3.3217165 
     244        0.488    300.96484   -13131.639    9020.6676     8872.549    9165.7302    9023.7237    72.614602   -169.36066   -54.218412    40.500002    40.500002    40.500002    38.165727   -3.3218028 
     245         0.49    301.69212    -13131.64    9005.1461    8854.3263    9143.9422    9017.1698    60.376822   -169.65293   -49.308681    40.500002    40.500002    40.500002      38.0951    -3.321897 
     246        0.492    302.44846   -13131.641    8988.4359    8835.4078    9121.0744    9008.8255    49.219901   -170.08529   -43.464542    40.500002    40.500002    40.500002    38.013825   -3.3219951 
     247        0.494    303.19802   -13131.642    8971.5333    8816.8108    9098.4596    8999.3295    38.624125   -171.20199   -36.843799    40.500002    40.500002    40.500002    37.927456   -3.3220922 
     248        0.496    303.90399   -13131.644    8955.3988    8800.1229    9076.6666    8989.4069     28.31867   -172.66639   -29.907517    40.500002    40.500002    40.500002    37.841611   -3.3221838 
     249        0.498    304.53069   -13131.645    8940.5231    8787.3674    9055.7247    8978.4773    18.929534   -174.15091   -23.193728    40.500002    40.500002    40.500002    37.761705    -3.322265 
     250          0.5    302.52327    -13132.95     8906.832    8758.2545    9015.3768    8946.8648    10.275964   -176.83067   -17.572515    40.500002    40.500002    40.500002    37.692222   -3.3223319 
     251        0.502    302.91746    -13132.95    8896.9712    8756.0377    8996.7842    8938.0916    3.1289096   -179.88794   -12.965188    40.500002    40.500002    40.500002    37.635182    -3.322383 
     252        0.504    303.18786   -13132.951    8890.5863     8760.738    8979.1867    8931.8342   -1.8163838   -182.68591   -8.9734317    40.500002    40.500002    40.500002     37.59146    -3.322418 
     253        0.506    303.31815   -13132.951    8887.8391     8772.116    8963.0724    8928.3288    -4.292705   -185.16018   -5.4559654    40.500002    40.500002    40.500002    37.562697    -3.322435 
     254        0.508    303.29724   -13132.951    8889.3623      8789.76    8949.5293    8928.7976   -4.8131798   -187.67489   -2.5235794    40.500002    40.500002    40.500002    37.550223   -3.3224323 
     255         0.51    303.12037   -13132.951    8895.6244    8813.4147    8939.7262    8933.7323   -3.7046305   -190.45358  -0.51879512    40.500002    40.500002    40.500002    37.554747   -3.3224094 
     256        0.512    302.78911   -13132.951     8906.456    8842.7038    8934.1765    8942.4877    -1.232189   -193.85339  -0.41876094    40.500002    40.500002    40.500002    37.576455   -3.3223666 
     257        0.514    302.31061   -13132.951    8920.5695    8876.6534    8932.3038    8952.7515    2.8911775   -198.18747   -2.0357764    40.500002    40.500002    40.500002    37.614961   -3.3223046 
     258        0.516    301.69737    -13132.95     8936.696    8913.4463    8933.3038    8963.3379    9.1960388   -203.10574   -4.9744115    40.500002    40.500002    40.500002    37.669129   -3.3222253 
     259        0.518    300.96727    -13132.95    8953.7607    8952.1555    8935.5746    8973.5521    17.887037   -207.41873   -8.6370652    40.500002    40.500002    40.500002     37.73747   -3.3221307 
     260         0.52    300.14367   -13132.949     8971.488    8992.0881    8938.6984    8983.6776    27.979745   -210.58127   -12.619399    40.500002    40.500002    40.500002    37.817859   -3.3220241 
     261        0.522    299.25483   -13132.948    8990.0797    9032.8877    8943.2459    8994.1055    38.589767   -212.01172   -16.210473    40.500002    40.500002    40.500002    37.906975    -3.321909 
     262        0.524    298.33287   -13132.947    9009.2796    9074.0387    8949.6049    9004.1952     48.73774   -211.72805    -19.82344    40.500002    40.500002    40.500002    38.000842   -3.3217896 
     263        0.526    297.41238   -13132.946     9028.315    9114.2032    8957.5014    9013.2405    58.256859   -209.76202   -23.342654    40.500002    40.500002    40.500002    38.095459   -3.3216703 
     264        0.528    296.52872   -13132.944    9046.5036    9152.0533    8966.4063    9021.0512    66.723976   -206.01723   -26.161551    40.500002    40.500002    40.500002    38.186752   -3.3215559 
     265         0.53    295.71673   -13132.943    9062.1979    9185.5167    8974.0763    9027.0005    73.783066    -200.7566   -27.464455    40.500002    40.500002    40.500002    38.270624   -3.3214507 
     266        0.532    295.00927   -13132.942    9074.6095    9212.8642    8979.7311    9031.2333    79.248349   -193.83621   -27.115193    40.500002    40.500002    40.500002    38.343976    -3.321359 
     267        0.534    294.43619   -13132.942    9083.0548    9232.5745    8983.9368    9032.6532    82.131596   -185.71228   -25.581388    40.500002    40.500002    40.500002    38.404277   -3.3212848 
     268        0.536    294.02217   -13132.941    9086.8931    9244.0374    8985.9476    9030.6944    81.358523   -177.10005   -23.187083    40.500002    40.500002    40.500002    38.449916   -3.3212311 
     269        0.538     293.7856   -13132.941    9085.6352    9245.9946    8985.7197    9025.1913    76.697444   -167.60737   -20.861658    40.500002    40.500002    40.500002    38.480112   -3.3212004 
     270         0.54    296.86967   -13131.322    9105.3031    9264.3237    9008.9441    9042.6413    68.613215   -157.38858   -18.502857    40.500002    40.500002    40.500002    38.494636   -3.3211944 
     271        0.542    297.00116   -13131.322    9095.0666    9246.9903    9005.6128    9032.5968    58.078309   -146.55614   -16.273637    40.500002    40.500002    40.500002     38.49618   -3.3212113 
     272        0.544    297.29375   -13131.322    9082.8146     9222.849    9003.7187    9021.8761    45.708924   -134.93225   -13.509141    40.500002    40.500002    40.500002    38.487185   -3.3212491 
     273        0.546    297.74824   -13131.322    9069.8541    9194.2848    9004.7351    9010.5423    31.823467   -122.47759    -9.552458    40.500002    40.500002    40.500002    38.467625   -3.3213079 
     274        0.548    298.36044   -13131.322    9055.7781    9162.3268    9007.7112    8997.2964    16.048994   -109.44358   -4.8440359    40.500002    40.500002    40.500002    38.437296   -3.3213871 
     275         0.55    299.12129   -13131.323    9041.2191    9128.2944    9012.2649     8983.098   -1.2398261   -96.542615  -0.16201818    40.500002    40.500002    40.500002    38.396653   -3.3214855 
     276        0.552    300.01855   -13131.323    9025.9603    9091.8912     9017.711    8968.2788   -20.069661    -84.08794    3.8343744    40.500002    40.500002    40.500002    38.345573   -3.3216015 
     277        0.554    301.03682   -13131.324    9008.9114    9052.8801    9022.6708    8951.1834   -40.429272     -72.1411    6.7824387    40.500002    40.500002    40.500002    38.283689   -3.3217333 
     278        0.556    302.15618   -13131.324    8989.8342     9012.093    9026.1153    8931.2943   -61.444769   -60.721649     8.904525    40.500002    40.500002    40.500002    38.211251   -3.3218781 
     279        0.558    303.35172   -13131.325    8969.0194    8970.9996    9027.2055    8908.8531   -82.351402   -50.172698    10.262584    40.500002    40.500002    40.500002    38.129257   -3.3220328 
     280         0.56    302.29677   -13132.514    8928.1862       8912.1    9006.9001    8865.5584   -102.33575   -40.780338    10.450672    40.500002    40.500002    40.500002    38.040004   -3.3221936 
     281        0.562    303.56143   -13132.515    8905.9927    8875.1407    9002.3753     8840.462   -121.14223   -33.401568    9.6129713    40.500002    40.500002    40.500002    37.944821   -3.3223573 
     282        0.564     304.8327   -13132.516    8884.3472    8841.6386    8995.3174    8816.0857   -138.45301   -27.224065    8.1967904    40.500002    40.500002    40.500002    37.845743   -3.3225218 
     283        0.566    306.07353   -13132.517    8863.7573    8811.4686     8986.309    8793.4944   -154.34797   -22.059513    5.9271179    40.500002    40.500002    40.500002     37.74672   -3.3226825 
     284        0.568    307.24674   -13132.518    8844.1793    8784.0865    8975.6074    8772.8439   -167.38303   -18.437222    2.6690407    40.500002    40.500002    40.500002    37.651954   -3.3228344 
     285         0.57    308.31622   -13132.519    8826.8326    8760.4067    8964.8389    8755.2521   -177.46048   -17.351181   -1.1542359    40.500002    40.500002    40.500002    37.566553   -3.3229728 
     286        0.572    309.24974    -13132.52    8812.0612    8740.4214    8955.1537    8740.6086   -184.93977   -18.717089   -4.3917882    40.500002    40.500002    40.500002    37.494774   -3.3230937 
     287        0.574    310.02051   -13132.521    8799.5473    8723.4261    8946.0924    8729.1234   -191.24299   -22.416242   -6.6913392    40.500002    40.500002    40.500002    37.440009   -3.3231935 
     288        0.576    310.60745   -13132.521     8789.511    8708.8051    8937.5059    8722.2219   -196.67575   -27.945974   -8.4110178    40.500002    40.500002    40.500002    37.404958   -3.3232694 
     289        0.578    310.99656   -13132.521    8783.0335    8696.6557    8930.9064    8721.5383   -201.07017   -35.638458   -9.9849996    40.500002    40.500002    40.500002     37.39197   -3.3233198 
     290         0.58    305.59115   -13135.411    8734.2736    8640.6454    8880.9252    8681.2503   -203.37704   -45.673125   -11.041625    40.500002    40.500002    40.500002    37.402094   -3.3233437 
     291        0.582    305.61227   -13135.411    8734.8815    8633.9551    8879.9435    8690.7458   -205.14709   -56.706674   -11.897261    40.500002    40.500002    40.500002     37.43068   -3.3233464 
     292        0.584      305.516   -13135.411    8737.3992    8629.1145    8879.7069    8703.3763   -206.39458   -68.710142   -12.556886    40.500002    40.500002    40.500002    37.472341   -3.3233338 
     293        0.586    305.31824    -13135.41    8741.3737    8626.4031     8879.325    8718.3928   -207.26323   -80.672202   -12.921224    40.500002    40.500002    40.500002    37.524224   -3.3233081 
     294        0.588    305.03979   -13135.409    8746.8755    8625.9938    8878.7304    8735.9022   -207.92522   -91.348218   -12.891876    40.500002    40.500002    40.500002    37.582946   -3.3232719 
     295         0.59     304.7048   -13135.408    8753.8542    8628.2444    8877.8292     8755.489   -208.05694   -100.28439   -12.198583    40.500002    40.500002    40.500002    37.644234   -3.3232284 
     296        0.592    304.33952   -13135.407    8761.7222    8632.9009    8876.0756      8776.19   -207.80094   -107.22194   -10.609034    40.500002    40.500002    40.500002    37.702786    -3.323181 
     297        0.594    303.96974   -13135.407    8769.8517    8639.5412     8872.786    8797.2278    -207.7874   -111.04321   -7.8190361    40.500002    40.500002    40.500002    37.753741    -3.323133 
     298        0.596    303.61885   -13135.406    8777.0224    8646.6369    8867.2363    8817.1941   -208.80411   -111.26964    -4.137663    40.500002    40.500002    40.500002    37.792918   -3.3230875 
     299        0.598      303.306   -13135.406    8782.3818    8653.1728    8858.9596    8835.0131   -210.21575    -107.7678 -0.0093184894    40.500002    40.500002    40.500002    37.816997    -3.323047 
     300          0.6    301.52207   -13136.192    8772.8383    8646.7337    8834.7174    8837.0639   -210.83731   -100.40262    4.9700531    40.500002    40.500002    40.500002    37.823621   -3.3230131 
     301        0.602     301.3271   -13136.192    8774.4286    8653.4607    8820.7906    8849.0344   -210.31921   -88.861266    11.521758    40.500002    40.500002    40.500002    37.811161   -3.3229879 
     302        0.604    301.20501   -13136.193    8774.1902    8659.9781     8804.951    8857.6413   -208.31039   -74.354564    19.787463    40.500002    40.500002    40.500002    37.779244   -3.3229722 
     303        0.606    301.14398   -13136.193    8771.9437    8665.8979    8786.9942    8862.9391     -204.432   -57.641866    28.511518    40.500002    40.500002    40.500002    37.729968   -3.3229645 
     304        0.608    301.12442   -13136.194    8768.4715    8672.1554    8767.4776    8865.7816   -198.23006    -39.18127    37.684057    40.500002    40.500002    40.500002    37.667001   -3.3229622 
     305         0.61    301.12003   -13136.195     8764.971    8679.7946    8747.8707    8867.2478   -190.15605   -19.465896    46.908346    40.500002    40.500002    40.500002    37.595493   -3.3229618 
     306        0.612    301.09981   -13136.196    8762.1401    8689.0759    8729.8275    8867.5168   -179.74455    1.7084921    56.481389    40.500002    40.500002    40.500002    37.520815   -3.3229595 
     307        0.614    301.02942   -13136.197     8760.541    8700.6411     8714.647    8866.3348   -166.65224    24.009555    66.484681    40.500002    40.500002    40.500002    37.449075   -3.3229507 
     308        0.616    300.87332   -13136.199    8761.2521    8716.3454    8702.5233    8864.8878   -151.55176    46.438118    75.612901    40.500002    40.500002    40.500002      37.3873   -3.3229309 
     309        0.618    300.59893     -13136.2    8764.6658    8736.7783    8693.5518    8863.6672   -134.56651    67.918728    82.788858    40.500002    40.500002    40.500002    37.341799   -3.3228956 
     310         0.62    300.18087     -13136.2    8771.0171    8761.8109    8687.9796    8863.2608   -116.83351     87.08945    87.575271    40.500002    40.500002    40.500002    37.317273   -3.3228417 
     311        0.622    299.60387     -13136.2    8780.2476      8790.31    8686.2042    8864.2286   -99.182548    102.74879    89.241449    40.500002    40.500002    40.500002    37.316571   -3.3227672 
     312        0.624    298.86398     -13136.2    8792.8451    8821.4356     8689.441    8867.6586   -81.513118    114.20204    87.436009    40.500002    40.500002    40.500002    37.340144   -3.3226716 
     313        0.626    297.96767     -13136.2    8808.6049    8854.4096    8697.3808    8874.0245   -64.298867    121.05815    82.385647    40.500002    40.500002    40.500002    37.386528   -3.3225556 
     314        0.628    296.93084   -13136.199    8827.3708    8888.5094    8709.4192    8884.1837   -47.920301    123.50152    74.223819    40.500002    40.500002    40.500002     37.45238   -3.3224214 
     315         0.63    295.77793   -13136.198    8849.2853     8923.574    8725.3809    8898.9011   -33.180411    121.30338     63.03185    40.500002    40.500002    40.500002    37.533483   -3.3222722 
     316        0.632    294.53901   -13136.197    8874.1651    8959.2792    8745.0052    8918.2109   -20.969254     114.6019    49.038774    40.500002    40.500002    40.500002    37.625193   -3.3221118 
     317        0.634    293.24666   -13136.196    8901.0734    8994.1616    8767.7279    8941.3307    -11.09787    104.00776    32.669199    40.500002    40.500002    40.500002    37.723272   -3.3219446 
     318        0.636    291.93487   -13136.195    8929.8546    9027.7662    8793.3432    8968.4544   -3.6709698    90.198809    14.343412    40.500002    40.500002    40.500002    37.824185   -3.3217748 
     319        0.638    290.63848   -13136.194    8960.0705    9058.9335    8821.9545    8999.3235   0.88798014    74.025946   -4.4480413    40.500002    40.500002    40.500002    37.924746    -3.321607 
     320         0.64    294.69598   -13133.451    9034.7473    9130.6416    8897.3093     9076.291    2.5345526    56.555926   -21.658863    40.500002    40.500002    40.500002    38.022449   -3.3214457 
     321        0.642    293.48602    -13133.45    9065.5079    9153.1187    8932.2441     9111.161     1.466382     39.03155   -37.473803    40.500002    40.500002    40.500002    38.119324   -3.3212891 
     322        0.644    292.32076   -13133.449    9095.7444    9170.8737    8970.2263    9146.1333   -2.3626709    22.250887   -50.629073    40.500002    40.500002    40.500002    38.215787   -3.3211382 
     323        0.646    291.23311   -13133.448    9124.2681    9183.4337    9010.4302    9178.9403   -8.7142358     6.698469   -61.212124    40.500002    40.500002    40.500002    38.308639   -3.3209975 
     324        0.648    290.25543   -13133.447     9150.133     9190.714    9051.9676    9207.7174   -17.016936   -7.4459679   -69.510546    40.500002    40.500002    40.500002    38.394484   -3.3208709 
     325         0.65     289.4188   -13133.446    9172.0565     9191.849    9093.6151    9230.7055    -27.32715   -19.666459   -75.189913    40.500002    40.500002    40.500002    38.469124   -3.3207625 
     326        0.652    288.75187   -13133.445    9189.2188    9186.9873    9133.7306    9246.9383   -39.114555   -29.835589   -78.466068    40.500002    40.500002    40.500002     38.52817   -3.3206761 
     327        0.654    288.27917   -13133.445    9201.6716    9176.6261    9171.5015    9256.8873   -51.075093   -37.073429   -78.785251    40.500002    40.500002    40.500002    38.567536   -3.3206149 
     328        0.656    288.01868   -13133.445    9209.0364    9160.9852    9205.6717    9260.4523    -62.79144   -41.111642    -76.20757    40.500002    40.500002    40.500002    38.583562   -3.3205812 
     329        0.658     287.9788   -13133.445    9211.2125    9140.9285    9235.5408    9257.1681   -73.084907   -41.867268   -71.495714    40.500002    40.500002    40.500002    38.573747    -3.320576 
     330         0.66    294.07845   -13130.384    9257.7353    9167.5158    9308.9256    9296.7644    -79.11759   -37.636546   -65.590707    40.500002    40.500002    40.500002     38.53724   -3.3205992 
     331        0.662    294.42278   -13130.385    9250.6715    9141.1806    9328.4416    9282.3923   -81.115895    -31.27073   -58.837549    40.500002    40.500002    40.500002    38.478637   -3.3206439 
     332        0.664    294.86595   -13130.386    9239.8648    9114.1226    9341.4388     9264.033    -77.76193   -19.961256   -51.089249    40.500002    40.500002    40.500002    38.405628   -3.3207014 
     333        0.666    295.37786   -13130.387     9225.622    9086.7968    9347.5068    9242.5625   -69.262723   -3.9189534   -42.317718    40.500002    40.500002    40.500002    38.323064   -3.3207678 
     334        0.668    295.92499   -13130.388    9209.7032    9060.2994     9348.831    9219.9791    -56.69989    16.503171   -32.572555    40.500002    40.500002    40.500002    38.236955   -3.3208388 
     335         0.67     296.4726   -13130.389    9193.1359    9035.6075    9346.6717    9197.1283   -41.902952    40.191625   -21.563939    40.500002    40.500002    40.500002    38.153817   -3.3209098 
     336        0.672    296.98743    -13130.39    9176.5777    9012.8706    9342.2179    9174.6444   -25.583207    66.411987   -10.916034    40.500002    40.500002    40.500002    38.079784   -3.3209766 
     337        0.674    297.44055   -13130.391    9160.3098    8993.2647    9335.7802    9151.8844   -9.1206071    94.051621    -1.412529    40.500002    40.500002    40.500002     38.01966   -3.3210353 
     338        0.676    297.80901   -13130.391    9144.6998    8977.0845    9328.1446    9128.8702    6.8422123    121.65774    6.8162097    40.500002    40.500002    40.500002    37.976729   -3.3210831 
     339        0.678     298.0772   -13130.392    9131.2149    8965.3116    9321.1073     9107.226    22.276801    147.55211    13.826036    40.500002    40.500002    40.500002    37.952989   -3.3211178 
     340         0.68     299.1191   -13129.936    9127.8707     8965.017    9323.1096    9095.4855    36.677382    170.47873    19.353052    40.500002    40.500002    40.500002    37.948576   -3.3211386 
     341        0.682    299.16766   -13129.936    9119.8923    8960.8133     9318.929    9079.9346    49.679068    188.94913    23.787782    40.500002    40.500002    40.500002    37.963076   -3.3211448 
     342        0.684    299.10629   -13129.935     9114.683    8959.8067    9316.1226    9068.1198     61.19986    202.17824    26.727894    40.500002    40.500002    40.500002    37.994575   -3.3211367 
     343        0.686    298.95158   -13129.935    9112.6383    8962.5287     9315.606    9059.7801    70.173493    210.29788    27.016611    40.500002    40.500002    40.500002    38.038673   -3.3211165 
     344        0.688    298.72434   -13129.934    9112.8553    8968.5994    9316.3352    9053.6313    76.232485      213.607    24.716287    40.500002    40.500002    40.500002    38.090185   -3.3210869 
     345         0.69    298.44763   -13129.933    9114.5705    8977.3175    9317.5132    9048.8809    79.325064    212.62463    19.954371    40.500002    40.500002    40.500002    38.144385    -3.321051 
     346        0.692    298.14675   -13129.932    9117.0639     8987.872     9318.418    9044.9017    78.905929    207.86066    12.868396    40.500002    40.500002    40.500002    38.196818   -3.3210119 
     347        0.694    297.84725   -13129.931    9119.6494    8999.1868     9318.863    9040.8983    74.767674     199.7682    3.8441148    40.500002    40.500002    40.500002    38.243164    -3.320973 
     348        0.696    297.57126   -13129.931    9122.1317    9010.4906    9318.3094    9037.5952    66.911424    188.51722    -6.740861    40.500002    40.500002    40.500002    38.280357   -3.3209372 
     349        0.698     297.3354    -13129.93    9124.3933     9021.449    9316.0324    9035.6984    56.082323    173.90603   -18.381239    40.500002    40.500002    40.500002    38.306729   -3.3209066 
     350          0.7    298.57517   -13129.194    9137.9742    9043.3057    9323.6052    9047.0116    43.426894    155.56272   -30.615413    40.500002    40.500002    40.500002    38.322115   -3.3208827 
     351        0.702    298.43557   -13129.194    9139.3162    9053.5864    9317.3249    9047.0372    29.450022    134.49099   -43.303424    40.500002    40.500002    40.500002    38.328592   -3.3208646 
     352        0.704    298.33215   -13129.194      9140.13    9064.3076    9309.4059    9046.6764    14.263892    111.21111   -56.091569    40.500002    40.500002    40.500002    38.329371   -3.3208513 
     353        0.706    298.26163   -13129.194    9140.3771    9075.0575    9300.3159    9045.7577   -1.6341203    86.161888   -68.619615    40.500002    40.500002    40.500002    38.327544   -3.3208422 
     354        0.708    298.21888   -13129.194    9139.1068    9084.9247    9288.9231    9043.4725   -17.169118    59.508717    -80.52459    40.500002    40.500002    40.500002    38.326423   -3.3208368 
     355         0.71    298.19955   -13129.194    9136.0119    9093.6572    9274.6353    9039.7432   -31.317575    31.548952   -90.722316    40.500002    40.500002    40.500002    38.328989   -3.3208343 
     356        0.712    298.20181   -13129.194    9132.0132    9101.4465     9259.001    9035.5922   -43.914504    2.6770005   -98.048609    40.500002    40.500002    40.500002    38.337376   -3.3208346 
     357        0.714    298.22705   -13129.194    9127.7892     9108.532    9242.8341    9032.0016   -54.372418   -26.700937   -101.74133    40.500002    40.500002    40.500002     38.35279   -3.3208378 
     358        0.716    298.27964   -13129.194    9123.4477    9114.4313    9226.1866    9029.7252   -62.756959   -55.716737   -101.93291    40.500002    40.500002    40.500002     38.37554   -3.3208446 
     359        0.718    298.36677   -13129.194    9118.8071    9118.9907     9208.844    9028.5865   -68.813819   -83.656208   -99.005508    40.500002    40.500002    40.500002    38.404882   -3.3208557 
     360         0.72    299.24942   -13128.805    9120.8666    9129.3411    9198.0806    9035.1779   -73.285613   -110.35722    -92.91767    40.500002    40.500002    40.500002    38.439148   -3.3208727 
     361        0.722    299.43495   -13128.805    9117.1871    9132.9495    9181.2313    9037.3806    -76.12523   -134.46469   -84.293664    40.500002    40.500002    40.500002    38.475848   -3.3208966 
     362        0.724    299.68369   -13128.804    9113.9205    9136.5288    9164.1081    9041.1246   -78.046884   -154.90912   -74.730225    40.500002    40.500002    40.500002    38.511784   -3.3209286 
     363        0.726     300.0103   -13128.804    9111.3321    9140.8757    9147.0686     9046.052   -79.398324   -172.34693   -64.530941    40.500002    40.500002    40.500002    38.543394   -3.3209707 
     364        0.728    300.42851   -13128.804    9108.8038    9145.7458    9129.5292    9051.1366   -79.900985   -187.25854   -53.494859    40.500002    40.500002    40.500002    38.567138   -3.3210246 
     365         0.73    300.95015   -13128.803    9105.8708    9150.8926    9111.3542    9055.3655   -79.209782   -199.40931   -41.391172    40.500002    40.500002    40.500002    38.579755    -3.321092 
     366        0.732    301.58289   -13128.803    9101.8384     9155.852    9091.8285    9057.8347    -77.65745   -208.07447   -28.353956    40.500002    40.500002    40.500002    38.578788   -3.3211737 
     367        0.734     302.3284   -13128.803    9096.3968    9160.4865    9070.6175    9058.0863   -75.963669   -212.49716   -15.093384    40.500002    40.500002    40.500002    38.562787   -3.3212701 
     368        0.736    303.18169   -13128.804    9089.7842     9164.905    9048.5711    9055.8766   -74.879585   -213.44295   -2.8781324    40.500002    40.500002    40.500002    38.531335   -3.3213804 
     369        0.738    304.13109   -13128.804     9083.548    9170.5368    9028.0787    9052.0284   -75.077942   -211.00452    6.6705191    40.500002    40.500002    40.500002      38.4855   -3.3215033 
     370         0.74    302.57949   -13130.138    9057.1348    9155.8666    8989.1988     9026.339   -76.720691    -206.1088    12.665972    40.500002    40.500002    40.500002    38.427274   -3.3216363 
     371        0.742    303.67674   -13130.139    9052.1911    9162.8844    8973.4951    9020.1939   -80.746944   -199.56757     15.00023    40.500002    40.500002    40.500002    38.357448   -3.3217782 
     372        0.744    304.83973    -13130.14    9046.5648    9167.9391    8958.9272     9012.828   -87.726852   -191.84055    13.943387    40.500002    40.500002    40.500002    38.276983   -3.3219288 
     373        0.746    306.03958   -13130.141    9040.0057    9169.6535    8945.4448    9004.9188   -97.153023   -182.46838    10.061478    40.500002    40.500002    40.500002    38.189539   -3.3220841 
     374        0.748     307.2445   -13130.142    9033.4205    9169.1675    8933.7158    8997.3783   -107.74789   -171.97882    2.9935528    40.500002    40.500002    40.500002    38.099262     -3.32224 
     375         0.75    308.42175   -13130.143    9027.1814    9166.7969    8924.3741    8990.3732   -119.01862   -161.19414   -7.7093694    40.500002    40.500002    40.500002    38.010078   -3.3223924 
[...]
     413        0.826    300.07626   -13136.413    8680.9357    8563.9951    8756.1802    8722.6318   -29.232786   -169.77622   -43.664898    40.500002    40.500002    40.500002     37.69933   -3.3228815 
     414        0.828    299.81284   -13136.413     8680.407    8563.2032    8766.6753    8711.3423   -37.656908    -153.7621   -37.401604    40.500002    40.500002    40.500002    37.679071   -3.3228475 
     415         0.83    299.49541   -13136.414    8682.3618    8562.9416    8780.8671    8703.2769   -43.523424   -139.83157   -31.128907    40.500002    40.500002    40.500002    37.660875   -3.3228066 
     416        0.832     299.1102   -13136.415    8686.9696    8563.8476    8797.9812      8699.08    -46.44392   -128.16166   -25.692986    40.500002    40.500002    40.500002    37.648679    -3.322757 
     417        0.834    298.64493   -13136.415    8694.0678    8565.8119    8816.7496    8699.6419   -46.634782   -118.94208   -21.199733    40.500002    40.500002    40.500002    37.645816    -3.322697 
     418        0.836    298.09108   -13136.415    8703.4542    8568.4211    8836.3636     8705.578   -44.032872   -111.87995   -18.109505    40.500002    40.500002    40.500002    37.654263   -3.3226254 
     419        0.838    297.44473   -13136.415    8715.4678    8571.8716    8856.2362    8718.2956    -38.28954   -106.98298   -17.067583    40.500002    40.500002    40.500002    37.675476   -3.3225419 
     420         0.84     298.3541   -13135.564    8743.7727    8590.5476    8889.2173    8751.5533   -29.133406   -104.92519   -18.092663    40.500002    40.500002    40.500002    37.710217   -3.3224467 
     421        0.842    297.52274   -13135.564    8761.2083    8599.0145    8907.9499    8776.6604   -16.938679   -104.19908   -20.965936    40.500002    40.500002    40.500002     37.75944   -3.3223391 
     422        0.844    296.60263   -13135.563    8781.3663    8611.3146    8926.6953     8806.089   -1.4643288   -104.63357   -25.863389    40.500002    40.500002    40.500002    37.822829   -3.3222201 
     423        0.846    295.61569   -13135.562    8803.2435    8627.0893    8944.4623    8838.1791    16.792609   -106.16465   -32.468066    40.500002    40.500002    40.500002    37.897657   -3.3220923 
     424        0.848    294.58974   -13135.561    8826.9164    8647.0302    8961.2708    8872.4483    36.657315   -107.85311   -40.792306    40.500002    40.500002    40.500002    37.980655   -3.3219595 
     425         0.85    293.55596    -13135.56    8852.5192    8672.4142    8977.2264     8907.917    57.027885   -108.45374    -50.33128    40.500002    40.500002    40.500002    38.068623   -3.3218256 
     426        0.852    292.54718   -13135.559    8879.9257    8703.2611    8992.2298    8944.2862    77.729391   -107.56538   -60.839459    40.500002    40.500002    40.500002    38.158344    -3.321695 
     427        0.854    291.59709   -13135.558    8908.7436    8739.5439    9006.1947    8980.4922    98.023262   -105.72007   -71.958077    40.500002    40.500002    40.500002     38.24585    -3.321572 
     428        0.856    290.73859   -13135.557    8938.3376    8780.9807    9018.3227    9015.7094    117.47646   -102.97975   -83.604249    40.500002    40.500002    40.500002    38.327527   -3.3214608 
     429        0.858    290.00245   -13135.556    8967.8291    8826.6065     9027.491    9049.3898    135.94227   -98.369447   -95.616979    40.500002    40.500002    40.500002    38.400336   -3.3213654 
     430         0.86    294.70785    -13132.82    9041.3763    8918.3179     9078.838    9126.9729     153.2693   -90.617141   -107.35811    40.500002    40.500002    40.500002    38.462016   -3.3212894 
     431        0.862    294.25309   -13132.819     9070.974    8970.4669    9084.0076    9158.4475    168.33018   -80.305151   -118.47295    40.500002    40.500002    40.500002     38.51472   -3.3212305 
     432        0.864    293.91937   -13132.819    9099.6066     9023.393    9087.3797     9188.047    181.02311   -66.691271    -128.9768    40.500002    40.500002    40.500002    38.559205   -3.3211873 
     433        0.866    293.72399   -13132.818    9125.9377    9075.1753    9088.5065    9214.1314    191.39867   -49.420359   -139.18203    40.500002    40.500002    40.500002    38.593096   -3.3211619 
     434        0.868    293.68055   -13132.818    9148.9062    9124.1389    9087.3169    9235.2627    198.67338   -29.030409   -148.86468    40.500002    40.500002    40.500002    38.614449   -3.3211562 
     435         0.87    293.79841   -13132.818    9167.9975    9168.7582    9084.1376    9251.0969    203.03964   -6.5428865   -157.87855    40.500002    40.500002    40.500002    38.621606   -3.3211714 
     436        0.872    294.08236   -13132.818    9182.0326    9207.3642    9078.3428    9260.3908    204.34801    17.948947   -165.30809    40.500002    40.500002    40.500002     38.61276   -3.3212081 
     437        0.874    294.53178   -13132.818    9189.7236    9238.5236     9069.086     9261.561    201.98355    43.356953   -170.54358    40.500002    40.500002    40.500002    38.586407   -3.3212662 
     438        0.876    295.13983   -13132.818    9190.6744    9262.0396    9056.3254    9253.6583    196.29062    68.532046   -173.11029    40.500002    40.500002    40.500002    38.541684   -3.3213449 
     439        0.878    295.89259   -13132.819    9185.4895    9277.8933      9040.97    9237.6051    188.47566    92.110952   -173.13448    40.500002    40.500002    40.500002    38.478996   -3.3214423 
     440         0.88    298.38388   -13131.985    9188.8955    9300.3594    9037.4106    9228.9165    178.64455    112.57788   -171.11523    40.500002    40.500002    40.500002    38.400312   -3.3215557 
     441        0.882    299.34299   -13131.986    9175.5998    9303.4632    9021.2866    9202.0495    166.71149    128.67891   -166.89652    40.500002    40.500002    40.500002    38.309612   -3.3216799 
     442        0.884    300.33696   -13131.987    9160.1083     9301.427    9007.1886    9171.7093    153.30547    140.15405   -160.62109    40.500002    40.500002    40.500002    38.212502   -3.3218087 
     443        0.886    301.32702   -13131.988    9143.5372    9295.0051    8996.6402    9138.9661    139.02327    147.86027   -151.94139    40.500002    40.500002    40.500002    38.113646   -3.3219369 
     444        0.888    302.27432   -13131.989      9125.95    9283.6595    8990.5031    9103.6873    124.25101    152.28114    -140.9745    40.500002    40.500002    40.500002    38.017392   -3.3220596 
     445         0.89    303.14138   -13131.991    9107.6888    9267.0437    8988.5784    9067.4444    108.89739    153.44711   -128.21822    40.500002    40.500002    40.500002    37.928152    -3.322172 
     446        0.892    303.89236   -13131.992    9089.2353    9245.9535       8990.9    9030.8524    92.827137    151.36481   -113.84678    40.500002    40.500002    40.500002    37.849998   -3.3222693 
     447        0.894    304.49518   -13131.992    9070.6237    9220.5551    8997.1519     8994.164     75.70165    146.01165   -97.867745    40.500002    40.500002    40.500002    37.786048   -3.3223474 
     448        0.896    304.92429   -13131.993     9052.659    9191.9394    9007.7572    8958.2805    58.450716    137.24667   -80.369529    40.500002    40.500002    40.500002     37.73908    -3.322403 
     449        0.898    305.16193   -13131.993    9036.6153    9161.9898    9022.9967    8924.8593    41.597221    125.96215   -60.700259    40.500002    40.500002    40.500002    37.710615   -3.3224338 
     450          0.9    302.59869   -13133.337    9002.5488    9110.4149    9022.2891    8874.9424    25.273734     113.7006   -38.306965    40.500002    40.500002    40.500002    37.701292   -3.3224384 
     451        0.902      302.445   -13133.337     8994.385    9083.1473    9046.9074    8853.1003    9.4867912    101.57675   -14.279546    40.500002    40.500002    40.500002    37.709808   -3.3224185 
     452        0.904    302.12067   -13133.337     8990.434    9058.2131    9074.3271    8838.7619   -5.5911294    90.146657    10.791308    40.500002    40.500002    40.500002    37.734778   -3.3223765 
     453        0.906    301.63338   -13133.336    8990.9632    9035.6774    9104.7652    8832.4469   -19.660979     80.02173    36.040235    40.500002    40.500002    40.500002     37.77585   -3.3223135 
     454        0.908    300.99676   -13133.336    8995.6837    9015.8906    9137.3727    8833.7877   -32.594072    71.245997    60.659384    40.500002    40.500002    40.500002    37.831703   -3.3222311 
     455         0.91    300.23074   -13133.335    9003.6586    8998.5392     9170.757    8841.6797   -44.107909    64.149943     83.86961    40.500002    40.500002    40.500002    37.899779   -3.3221319 
     456        0.912    299.36187   -13133.334    9013.9588    8983.6309    9203.3573    8854.8882   -53.547219    58.319491    104.45782    40.500002    40.500002    40.500002    37.976339   -3.3220193 
     457        0.914    298.42089   -13133.333    9025.6561    8970.8872    9233.7119    8872.3693   -61.235814    53.468311    122.17631    40.500002    40.500002    40.500002    38.057076   -3.3218975 
     458        0.916    297.43968   -13133.332    9037.6298     8960.134     9260.437    8892.3182   -67.709384    49.158585     137.8684    40.500002    40.500002    40.500002    38.137643   -3.3217704 
     459        0.918    296.44871   -13133.331    9049.2985    8950.7983    9283.2648    8913.8325   -72.378051    44.912789    151.89759    40.500002    40.500002    40.500002    38.214104   -3.3216422 
     460         0.92    297.73773   -13132.161    9078.0431    8959.4084    9321.0203    8953.7004    -74.30307    40.727264    164.16335    40.500002    40.500002    40.500002     38.28282   -3.3215162 
     461        0.922     296.7885    -13132.16    9086.9507    8950.0851    9336.5304    8974.2365   -73.019983    36.797317    174.52099    40.500002    40.500002    40.500002    38.342557   -3.3213933 
     462        0.924    295.87467   -13132.159    9096.2878    8943.5727    9350.6417    8994.6491    -68.59877    32.654376    183.35142    40.500002    40.500002    40.500002    38.392228   -3.3212751 
     463        0.926    295.01595   -13132.159     9105.587    8939.7335    9362.9756    9014.0521   -61.292905    28.717617    190.34146    40.500002    40.500002    40.500002    38.430125    -3.321164 
     464        0.928    294.22676   -13132.159    9114.2758    8938.4558    9372.7807    9031.5909   -50.629872    24.585508    195.01671    40.500002    40.500002    40.500002    38.455823    -3.321062 
     465         0.93    293.51534   -13132.159    9121.7983    8940.3225    9378.7437    9046.3286   -36.579385    19.857864    196.05764    40.500002    40.500002    40.500002    38.470485     -3.32097 
     466        0.932    292.88527   -13132.159    9128.2284     8945.968    9380.4881     9058.229   -19.770052    14.783768     192.4862    40.500002    40.500002    40.500002    38.476361   -3.3208886 
     467        0.934    292.33659   -13132.159    9133.4645    8955.8222    9377.7549    9066.8165    -1.011068    9.5107154    183.50264    40.500002    40.500002    40.500002    38.475918   -3.3208177 
     468        0.936    291.86619   -13132.159    9138.2624    8970.1691    9372.1569    9072.4612    18.772638    4.0844723     169.2738    40.500002    40.500002    40.500002    38.472586    -3.320757 
     469        0.938    291.46972   -13132.159    9142.2028    8988.1992    9363.8455    9074.5639    38.143309   -1.2513752     149.6064    40.500002    40.500002    40.500002    38.469554   -3.3207058 
     470         0.94    295.57225    -13129.87    9181.3992    9045.8067     9389.407    9108.9838    56.584558   -5.7594703    125.22238    40.500002    40.500002    40.500002    38.468583   -3.3206637 
     471        0.942    295.28582    -13129.87     9183.017    9069.8205    9376.7837    9102.4469     73.73393   -10.828705    98.089494    40.500002    40.500002    40.500002    38.473958   -3.3206267 
     472        0.944    295.01346    -13129.87    9185.6226    9097.0691    9365.3943    9094.4045    89.629233   -15.352218    70.179274    40.500002    40.500002    40.500002    38.489098   -3.3205914 
     473        0.946    294.76313   -13129.869    9190.3998    9128.0832    9356.3372     9086.779    103.87259   -19.201735    43.389219    40.500002    40.500002    40.500002    38.513199    -3.320559 
     474        0.948    294.54751   -13129.869    9197.3857    9161.9275     9349.454    9080.7755    116.12185   -21.931851    18.428961    40.500002    40.500002    40.500002    38.544026    -3.320531 
     475         0.95    294.38172   -13129.868    9205.1123    9196.4002    9342.8509    9076.0858    126.47798   -22.871005   -4.2169377    40.500002    40.500002    40.500002    38.578748   -3.3205094 
     476        0.952    294.28183   -13129.868    9212.9199    9230.2838    9335.7921    9072.6837    135.05254   -22.311964   -24.490238    40.500002    40.500002    40.500002     38.61511   -3.3204964 
     477        0.954    294.26461   -13129.867    9220.7866    9262.7414    9328.7136    9070.9046    142.15049   -20.201429   -42.948046    40.500002    40.500002    40.500002    38.651181    -3.320494 
     478        0.956    294.34528   -13129.867    9228.1261    9292.6474    9321.8764    9069.8545    147.35715    -16.08164   -59.558875    40.500002    40.500002    40.500002    38.685306   -3.3205044 
     479        0.958    294.53611   -13129.867    9233.6269     9318.683    9314.0013    9068.1963    150.02584   -9.4532721   -74.361057    40.500002    40.500002    40.500002    38.715888   -3.3205289 
     480         0.96    297.42398   -13128.535    9257.3402    9361.7844    9324.3111    9085.9252    150.51506   0.20024023   -87.240359    40.500002    40.500002    40.500002    38.740815   -3.3205691 
     481        0.962    297.85157   -13128.534    9256.2489    9378.5242    9308.2917    9081.9308    149.18216     11.62764   -97.445826    40.500002    40.500002    40.500002    38.758968   -3.3206243 
     482        0.964    298.38485   -13128.534    9251.6117    9390.5984    9287.1899    9077.0469    146.70345    24.612656   -104.29774    40.500002    40.500002    40.500002    38.769051   -3.3206932 
     483        0.966    299.03006   -13128.534    9243.1549    9397.3609    9261.0621    9071.0418    143.57827    38.202186   -107.82346    40.500002    40.500002    40.500002    38.768506   -3.3207765 
     484        0.968    299.78989   -13128.534    9231.1048    9399.4679    9229.9516    9063.8949    139.60784    50.901441   -107.35253    40.500002    40.500002    40.500002    38.754911   -3.3208747 
     485         0.97    300.66216   -13128.534    9215.8387    9397.5371     9194.408    9055.5709    134.53832    61.927566   -102.95958    40.500002    40.500002    40.500002     38.72638   -3.3209875 
     486        0.972    301.63865   -13128.535    9197.5578     9392.018    9154.7156    9045.9398    128.53999      71.0544    -94.60149    40.500002    40.500002    40.500002    38.681524   -3.3211138 
     487        0.974    302.70431   -13128.535    9177.2619    9383.7271    9112.4229    9035.6358    121.01862    78.319198   -82.991729    40.500002    40.500002    40.500002    38.620461   -3.3212517 
     488        0.976    303.83718   -13128.536    9155.2252    9372.6063     9068.087    9024.9822    111.88999    83.524601   -69.341832    40.500002    40.500002    40.500002    38.544626   -3.3213983 
     489        0.978    305.00997   -13128.537     9132.069    9359.9265    9022.2576    9014.0228    100.66164    86.572607   -54.416856    40.500002    40.500002    40.500002    38.457381   -3.3215501 
     490         0.98    303.09535   -13130.138    9082.7671    9321.1605    8949.8239    8977.3169    86.725679    87.196759   -39.785496    40.500002    40.500002    40.500002    38.363392    -3.321703 
     491        0.982    304.26167    -13130.14    9059.3395     9307.951    8903.3886    8966.6787    72.004673    85.831265   -26.442907    40.500002    40.500002    40.500002    38.267909    -3.321854 
     492        0.984    305.40048   -13130.141    9036.6381    9294.0096    8857.9922    8957.9124    55.801105    82.693945   -14.437112    40.500002    40.500002    40.500002    38.176581   -3.3220015 
     493        0.986    306.47445   -13130.142    9015.8528    9279.5189    8815.3105    8952.7289    38.187853    78.507044   -4.1929946    40.500002    40.500002    40.500002    38.096812   -3.3221405 
     494        0.988    307.45213   -13130.143    8998.3002    9265.4136    8776.7609     8952.726    19.341005    74.346618    3.7450681    40.500002    40.500002    40.500002    38.034205   -3.3222671 
     495         0.99    308.30966   -13130.143    8984.5682     9251.469    8744.3255      8957.91   0.34384271    70.701852    9.0387649    40.500002    40.500002    40.500002    37.992561    -3.322378 
     496        0.992    309.03264   -13130.143    8974.1099     9236.906    8718.9531    8966.4706    -18.14913     67.96039    10.633069    40.500002    40.500002    40.500002    37.972933   -3.3224714 
     497        0.994    309.61647   -13130.143    8966.7397    9221.6909    8701.2762    8977.2519   -35.817415    66.038443    8.7314758    40.500002    40.500002    40.500002    37.973953   -3.3225468 
     498        0.996    310.06558   -13130.143    8961.1395    9205.1376    8690.0409    8988.2399   -51.973133    64.792483    3.5540423    40.500002    40.500002    40.500002    37.991664   -3.3226048 
     499        0.998    310.39109   -13130.142    8956.4547    9186.5747    8684.3358    8998.4536   -66.050146    63.961536   -4.6670917    40.500002    40.500002    40.500002    38.020532   -3.3226467 
     500            1    305.30402   -13132.883    8908.4348    9121.4056    8641.8094    8962.0893   -79.345588    63.600268    -14.74805    40.500002    40.500002    40.500002    38.054453   -3.3226746 
Loop time of 2.12672 on 10 procs for 500 steps with 4000 atoms

Performance: 40.626 ns/day, 0.591 hours/ns, 235.104 timesteps/s
94.2% CPU use with 10 MPI tasks x no OpenMP threads

MPI task timing breakdown:
Section |  min time  |  avg time  |  max time  |%varavg| %total
---------------------------------------------------------------
Pair    | 1.2358     | 1.2695     | 1.3165     |   2.4 | 59.69
Neigh   | 0          | 0          | 0          |   0.0 |  0.00
Comm    | 0.025494   | 0.054845   | 0.091759   |  11.2 |  2.58
Output  | 0.65957    | 0.71608    | 0.76094    |   3.3 | 33.67
Modify  | 0.019312   | 0.025683   | 0.034326   |   2.9 |  1.21
Other   |            | 0.06061    |            |       |  2.85

Nlocal:        400.000 ave         400 max         400 min
Histogram: 10 0 0 0 0 0 0 0 0 0
Nghost:        3182.00 ave        3182 max        3182 min
Histogram: 10 0 0 0 0 0 0 0 0 0
Neighs:        42578.0 ave       42578 max       42578 min
Histogram: 10 0 0 0 0 0 0 0 0 0

Total # of neighbors = 425780
Ave neighs/atom = 106.44500
Neighbor list builds = 0
Dangerous builds = 0
unfix 		1
unfix 		2

clear
next t
next i
next r
jump Timestep_determination.lmpin
#####################################################################################################################
# Course: Theory, Modelling, and Simulation of Microstructures (TMS) - Summer semester 2021
# Tutors: Dr. Arun Prakash, Vimal Muthusamy
# Description: Script to determine the timestep for a given interatomic potential
######################################################################################################################

# ------------------------ VARIABLES INITIALIZATION ----------------------------
variable i loop 6
variable t index 0.0001 0.0005 0.001 0.002 0.005 0.01
variable r index 10000 2000 1000 500 200 100 # No of steps for 1 ps

log log.time_step_$t.lammps
log log.time_step_0.005.lammps
