
# ------------------------ INITIALIZATION ----------------------------
clear
variable        latt0 equal 4.05000018187522  ### provide the lattice constant from your calculation
variable        lblock  equal 10

units           metal
atom_style      atomic
boundary        p  p  p
newton          off  off
processors      *  *  *


# ---------- STRUCTURE GENERATION ---------------------
lattice         fcc  ${latt0}  orient  x  1  0  0  orient  y  0  1  0  orient  z  0  0  1  origin  0.0    0.0    0.0
lattice         fcc  4.05000018187522  orient  x  1  0  0  orient  y  0  1  0  orient  z  0  0  1  origin  0.0    0.0    0.0
Lattice spacing in x,y,z = 4.0500002 4.0500002 4.0500002
region          sim_region  block  0  ${lblock}  0  ${lblock}  0  ${lblock}  units  lattice
region          sim_region  block  0  10  0  ${lblock}  0  ${lblock}  units  lattice
region          sim_region  block  0  10  0  10  0  ${lblock}  units  lattice
region          sim_region  block  0  10  0  10  0  10  units  lattice
create_box      1  sim_region
Created orthogonal box = (0.0000000 0.0000000 0.0000000) to (40.500002 40.500002 40.500002)
  1 by 2 by 5 MPI processor grid
create_atoms    1  box
Created 4000 atoms
  using lattice units in orthogonal box = (0.0000000 0.0000000 0.0000000) to (40.500002 40.500002 40.500002)
  create_atoms CPU = 0.000 seconds


# ------------------------ FORCE FIELDS ------------------------------
pair_style      eam/alloy ### TYPE OF POTENTIAL (eam (OR) eam/alloy)
pair_coeff      *  * /home03/nm95xule/TMS_SS2022Nan/Mishin_updated-Al-Co-2013.eam.alloy Al  ### POTENTIAL FILENAME

variable        natoms equal "count(all)"
variable        ecoh equal "pe/v_natoms"


# ------------------------- SETTINGS ---------------------------------
neighbor     	2.0 bin
neigh_modify 	delay 3
timestep 	$t
timestep 	0.01
thermo 		1
thermo_style 	custom step time temp etotal press pxx pyy pzz pxy pyz pxz lx ly lz fnorm v_ecoh

velocity 	all create 300.0 16723 rot yes dist gaussian


#--------------- ENERGY EQUILIBRATION --------------------------
fix 		2 all temp/rescale 10 300.0 300.0 1.0 0.5
fix 		1 all nve

run 		$r
run 		100
Neighbor list info ...
  update every 1 steps, delay 3 steps, check yes
  max neighbors/atom: 2000, page size: 100000
  master list distance cutoff = 8.499539
  ghost atom cutoff = 8.499539
  binsize = 4.2497695, bins = 10 10 10
  1 neighbor lists, perpetual/occasional/extra = 1 0 0
  (1) pair eam/alloy, perpetual
      attributes: half, newton off
      pair build: half/bin/newtoff
      stencil: full/bin/3d
      bin: standard
Per MPI rank memory allocation (min/avg/max) = 3.486 | 3.486 | 3.487 Mbytes
Step Time Temp TotEng Press Pxx Pyy Pzz Pxy Pyz Pxz Lx Ly Lz Fnorm v_ecoh 
       0            0          300   -13284.927    2493.3961    2492.1088    2488.1545    2499.9249    12.334899    1.2479016   -11.799564    40.500002    40.500002    40.500002 8.9842794e-15        -3.36 
       1         0.01    255.52493   -13283.788    2831.7987    2831.6111     2845.709    2818.0759    11.036298    1.1319708   -9.4485531    40.500002    40.500002    40.500002    16.864286    -3.353968 
       2         0.02    154.80224   -13281.081    4290.9746    4259.3627    4371.0538    4242.5073    8.7880965    8.6919125    -20.66468    40.500002    40.500002    40.500002    30.974118   -3.3402749 
       3         0.03    74.687032   -13279.096    5747.6188    5653.1373    5912.8326    5676.8866    8.4731976    12.436665   -50.793663    40.500002    40.500002    40.500002     37.54325   -3.3294257 
       4         0.04    66.976702   -13280.133    5718.2185    5557.3315    5944.6588    5652.6653    11.816717    1.6929329   -75.977582    40.500002    40.500002    40.500002    34.302345   -3.3286886 
       5         0.05    107.92635   -13282.225    4692.3214    4499.5266    4929.3228    4648.1149    21.770616    -1.778138   -76.779583    40.500002    40.500002    40.500002    26.041663   -3.3345033 
       6         0.06    141.85929   -13282.898    4032.0319    3860.6471    4231.2168    4004.2318    14.183859    7.7408547   -62.104478    40.500002    40.500002    40.500002    22.063379   -3.3390567 
       7         0.07    146.47111     -13282.1     4074.174    3967.9465    4202.6466    4051.9289   0.33303847    11.758463   -48.793132    40.500002    40.500002    40.500002    25.708579   -3.3394532 
       8         0.08    141.20349   -13281.118    4264.0464    4231.0508    4319.1897    4241.8988   -4.7869479    26.485829   -37.598688    40.500002    40.500002    40.500002    29.795216   -3.3385268 
       9         0.09    151.49933   -13281.233    4073.2612    4076.0905    4079.3705    4064.3226   -2.7140253    42.548469   -44.784849    40.500002    40.500002    40.500002    29.429378   -3.3398862 
      10          0.1    237.56278   -13249.898    4132.1345    4145.9095     4107.492    4143.0018     5.277293    41.106022   -60.888663    40.500002    40.500002    40.500002    25.467245   -3.3431743 
      11         0.11    243.76367   -13250.349    4010.9503    4004.0728    3979.8403    4048.9377    1.5809533    22.666842   -68.183581    40.500002    40.500002    40.500002    23.453934   -3.3440884 
      12         0.12    208.45741   -13249.394    4662.5627    4624.5761    4653.2274    4709.8846    7.7076454    20.119682   -68.763536    40.500002    40.500002    40.500002     28.28104   -3.3392871 
      13         0.13    159.06128   -13247.882    5687.8568    5629.4581    5734.9625    5699.1497    27.294346    17.385873    -54.46991    40.500002    40.500002    40.500002    34.199093   -3.3325255 
      14         0.14    136.64864   -13247.467    6175.3631    6093.4196    6281.7212    6150.9484    53.956814    9.4162038    -16.70754    40.500002    40.500002    40.500002     35.64745   -3.3295256 
      15         0.15    152.99589   -13248.477    5802.3467    5707.8915    5945.3594    5753.7893    54.139188    12.950546    15.178201    40.500002    40.500002    40.500002    32.074265   -3.3318906 
      16         0.16     182.0172   -13249.536    5186.5516    5104.7026    5334.5199    5120.4324    10.441189    43.152949    16.598874    40.500002    40.500002    40.500002      27.5392   -3.3359056 
      17         0.17    193.80836   -13249.625    4945.0871    4892.2519    5082.0217    4860.9878   -19.000477    74.449631   -24.661133    40.500002    40.500002    40.500002    26.898493   -3.3374516 
      18         0.18    184.49638   -13248.896    5116.1211    5086.5165     5237.873    5023.9738    -8.240921    94.610592   -72.092942    40.500002    40.500002    40.500002    29.932752   -3.3360661 
      19         0.19    173.22492   -13248.281    5320.6208    5296.4998    5428.8538    5236.5088    7.5424117    87.468866   -68.275473    40.500002    40.500002    40.500002    32.380581   -3.3344558 
      20          0.2     238.4056   -13216.619    5738.7411    5712.5736    5837.6757     5665.974    11.563874    59.901671   -36.753206    40.500002    40.500002    40.500002    31.832049   -3.3349633 
      21         0.21     245.4478   -13217.059    5592.5773     5518.522    5714.0754    5545.1346    15.978182   -21.365189   -17.244855    40.500002    40.500002    40.500002    30.205955   -3.3359835 
      22         0.22    234.19135   -13216.844    5849.7401    5698.6882    6035.4361    5815.0959   -21.892251   -47.126403   -11.533433    40.500002    40.500002    40.500002    31.139747   -3.3344751 
      23         0.23    210.69285   -13216.188    6339.1227    6133.3211    6583.1665    6300.8805   -72.739001   -14.442471   -13.366067    40.500002    40.500002    40.500002    33.683495   -3.3312743 
      24         0.24    193.05005   -13215.781    6695.9978    6504.6852    6936.7355    6646.5726   -74.605984    71.013114   -52.950259    40.500002    40.500002    40.500002    35.200279   -3.3288926 
      25         0.25    192.93624   -13215.972    6682.3728    6583.9526     6848.615    6614.5507   -28.242982    156.60539    -96.82256    40.500002    40.500002    40.500002    34.518084   -3.3289258 
      26         0.26    205.50822    -13216.47    6417.7556    6413.2884    6495.7755    6344.2028    1.8123786    166.36029   -76.968179    40.500002    40.500002    40.500002    32.557269   -3.3306748 
      27         0.27    216.70202   -13216.763    6220.3655    6248.0048    6280.2696    6132.8222    -21.65301    76.502721   -2.3686121    40.500002    40.500002    40.500002    31.295012   -3.3321946 
      28         0.28    217.97693   -13216.598    6218.2756     6226.036    6329.5944    6099.1964   -65.090725   -35.335454    59.346432    40.500002    40.500002    40.500002     31.80943   -3.3323182 
      29         0.29    212.99919   -13216.282    6310.8315     6283.959    6472.9582    6175.5772   -120.65424   -86.148631     57.77801    40.500002    40.500002    40.500002    33.013017    -3.331596 
      30          0.3    255.12944   -13192.999    6696.4493    6625.0532    6871.3447      6592.95   -158.43112   -87.233591    7.0029632    40.500002    40.500002    40.500002    33.465935   -3.3312196 
      31         0.31    250.95483   -13192.933    6745.5593      6634.17    6890.5716    6711.9363   -166.36273   -51.928481   -20.716024    40.500002    40.500002    40.500002      33.8354   -3.3306636 
      32         0.32    240.92167   -13192.681    6956.5954    6832.1773    7051.6872    6985.9218   -140.41465   -50.837133    15.062065    40.500002    40.500002    40.500002    34.837752    -3.329304 
      33         0.33    232.12687   -13192.515    7144.3879    7026.9232    7170.9649    7235.2757   -92.232904   -98.097065    88.915975    40.500002    40.500002    40.500002    35.502504   -3.3281261 
      34         0.34    229.40404   -13192.587    7183.8254    7072.4401    7181.1042    7297.9319   -48.535726     -172.206    133.03558    40.500002    40.500002    40.500002    35.296051   -3.3277921 
      35         0.35    231.11137   -13192.765    7117.0367    6995.7186    7150.0608    7205.3308   -30.398582   -185.75763    114.21863    40.500002    40.500002    40.500002    34.660338   -3.3280572 
      36         0.36    232.43302    -13192.84    7078.1794    6956.4542    7163.0163    7115.0676   -29.482014   -126.03124    90.443076    40.500002    40.500002    40.500002    34.373968   -3.3282468 
      37         0.37    231.26906   -13192.736    7147.1765    7061.5191     7238.119    7141.8915   -25.114248   -64.446831     91.57354    40.500002    40.500002    40.500002    34.733727   -3.3280703 
      38         0.38    230.48491   -13192.574    7211.4563    7201.2799      7255.13     7177.959     15.15136   -41.030625      84.5371    40.500002    40.500002    40.500002    35.216314   -3.3279285 
      39         0.39    233.87542   -13192.613    7173.8492    7200.6598    7164.3651    7156.5229    61.991269    -39.98097    91.886063    40.500002    40.500002    40.500002     35.08098   -3.3283764 
      40          0.4    270.24211   -13177.415    7290.0542    7273.8198    7239.8725    7356.4704    71.391604   -28.154593    121.08411    40.500002    40.500002    40.500002    34.382822   -3.3292765 
      41         0.41     270.5395   -13177.429    7260.9892    7155.6561     7190.695    7436.6164    50.401729   -21.161564    118.66192    40.500002    40.500002    40.500002     34.31074   -3.3293184 
      42         0.42    259.16377   -13177.097    7455.7708    7261.7749    7392.8594     7712.678    55.854757   -2.3873551     84.80576    40.500002    40.500002    40.500002    35.521083   -3.3277655 
      43         0.43    245.39446   -13176.742    7688.0025    7428.4087    7683.7005    7951.8984    84.837718    53.648832    34.457538    40.500002    40.500002    40.500002    36.816161   -3.3258973 
      44         0.44    239.31615   -13176.705    7780.1855    7494.0878    7859.7689       7986.7    126.63523    132.05751   -25.410636    40.500002    40.500002    40.500002    37.013622   -3.3251026 
      45         0.45     242.4876   -13176.945    7703.9796    7438.5057    7849.4747    7823.9584    154.41548     165.8398   -79.890004    40.500002    40.500002    40.500002    36.225029   -3.3255723 
      46         0.46    248.54982   -13177.163    7611.6506    7422.4711     7776.255    7636.2256     143.5716    108.17772   -92.088375    40.500002    40.500002    40.500002    35.447091   -3.3264104 
      47         0.47    251.32378   -13177.149    7599.3514    7499.5555    7758.5541    7539.9445    111.43477    20.250963   -47.519332    40.500002    40.500002    40.500002    35.471652   -3.3267652 
      48         0.48    250.94447   -13176.966    7644.0551    7594.4899    7804.4223    7533.2533    58.511479   -7.3691202     8.831842    40.500002    40.500002    40.500002    36.066636   -3.3266706 
      49         0.49    251.88218   -13176.906    7634.4215    7602.4896    7804.4761    7496.2989    7.2091921    19.857765   -1.6985719    40.500002    40.500002    40.500002    36.305056   -3.3267768 
      50          0.5    277.94813   -13165.641    7731.2574    7713.2043    7876.1681    7604.3998   -28.581678    45.140803   -40.587226    40.500002    40.500002    40.500002    35.839844    -3.327329 
      51         0.51    277.97508   -13165.751    7723.5643    7721.8333    7786.4624    7662.3972   -22.822502    24.839183   -28.583576    40.500002    40.500002    40.500002    35.522041   -3.3273599 
      52         0.52    267.78955   -13165.558    7924.1119    7936.3565    7900.7113    7935.2679    33.368319    2.6896064    6.0549456    40.500002    40.500002    40.500002    36.310003   -3.3259953 
      53         0.53    253.53913   -13165.149    8192.1795    8182.8547    8147.4616    8246.2222     56.49986    27.569986    31.935774    40.500002    40.500002    40.500002    37.687199   -3.3240517 
      54         0.54    246.55024   -13164.938    8310.0672     8216.091    8333.6451    8380.4655    13.616363    65.348125        50.69    40.500002    40.500002    40.500002    38.325812   -3.3230957 
      55         0.55    252.35659    -13165.17    8171.6405    7971.0408    8295.4833    8248.3974    -50.14842     40.87493    56.332903    40.500002    40.500002    40.500002     37.55648    -3.323904 
      56         0.56    264.79574   -13165.557    7919.8127    7683.0914    8079.3818    7996.9649   -105.50365   -25.548994    54.587555    40.500002    40.500002    40.500002    36.170246   -3.3256082 
      57         0.57    272.93333   -13165.709    7764.4851    7584.9907    7906.4423    7802.0224   -101.83124   -98.910831    62.917615    40.500002    40.500002    40.500002    35.568295   -3.3266979 
      58         0.58     272.2961   -13165.494     7793.735    7709.8589    7908.2892    7763.0568   -89.161632   -162.31759    85.316725    40.500002    40.500002    40.500002    36.260474   -3.3265617 
      59         0.59    268.32152   -13165.242    7900.8206    7914.5415    7976.2806    7811.6398   -75.082753   -153.03001    116.35708    40.500002    40.500002    40.500002    37.087286   -3.3259851 
      60          0.6    283.70406   -13156.916    8034.4121    8108.8268    8059.5564    7934.8531   -43.310514   -101.20673    158.38346    40.500002    40.500002    40.500002    36.873458   -3.3258914 
      61         0.61    281.46562   -13157.077    8034.0916    8133.0333    8003.3055    7965.9362  -0.18936631    -43.02309     181.0911    40.500002    40.500002    40.500002    36.469737   -3.3256426 
      62         0.62    271.76395   -13156.935    8207.0093    8294.6259    8130.8178    8195.5842    35.121721   -26.463076     119.2686    40.500002    40.500002    40.500002     37.07422   -3.3243531 
      63         0.63    258.74666   -13156.636      8476.66    8522.3456    8356.5233     8551.111    20.182864   -94.913021    10.783999    40.500002    40.500002    40.500002    38.198104   -3.3225962 
      64         0.64    251.12424   -13156.461    8662.4291    8633.3912     8540.031     8813.865   -15.827325   -180.86432    -51.77736    40.500002    40.500002    40.500002    38.859738   -3.3215675 
      65         0.65    254.15337   -13156.551    8649.1454    8525.5663    8577.1167    8844.7532   -42.382114   -217.64534   -17.163119    40.500002    40.500002    40.500002    38.547709   -3.3219815 
      66         0.66    265.07334   -13156.858    8445.3903    8251.0705    8460.2285    8624.8719    -27.02098   -164.98755    70.142207    40.500002    40.500002    40.500002     37.46438   -3.3234694 
      67         0.67     275.2261   -13157.067    8207.9508    8004.5013    8303.3566    8315.9945    27.974192   -36.408393    127.61405    40.500002    40.500002    40.500002    36.605865   -3.3248337 
      68         0.68    278.23191   -13157.002    8114.6183    7953.4161    8277.0846    8113.3543    65.091323    73.739566    108.68801    40.500002    40.500002    40.500002    36.725982   -3.3252057 
      69         0.69    275.55618    -13156.77    8192.9329    8084.0738    8387.2532    8107.4717    67.717229    86.263334    38.115116    40.500002    40.500002    40.500002    37.401949   -3.3248021 
      70          0.7    286.41842   -13149.694     8344.469    8276.2682    8503.2561    8253.8825     17.68888    8.1883909   -37.263249    40.500002    40.500002    40.500002    37.626111   -3.3244367 
      71         0.71    283.21769    -13149.79    8352.9234    8330.6295     8428.523    8299.6178   -31.355035   -129.75395   -71.751303    40.500002    40.500002    40.500002    37.502944   -3.3240471 
      72         0.72    276.20712   -13149.674     8493.115    8511.4624    8494.1073    8473.7754   -52.055164   -255.53988   -53.504698    40.500002    40.500002    40.500002    37.983834   -3.3231122 
      73         0.73    269.06251   -13149.411    8687.1344     8736.298    8620.3399    8704.7654   -68.582845   -279.60921    9.5611522    40.500002    40.500002    40.500002     38.82956    -3.322123 
      74         0.74    268.63113   -13149.358    8761.0655    8792.6722    8677.0959    8813.4284   -97.297461   -188.49955    40.552567    40.500002    40.500002    40.500002    39.013005   -3.3220541 
      75         0.75    276.35343   -13149.588     8643.622    8607.0012    8614.0545    8709.8103   -115.95033   -42.750525   -14.759285    40.500002    40.500002    40.500002    38.256941   -3.3231096 
      76         0.76    285.71731   -13149.885    8462.7793     8346.193    8522.0828     8520.062   -87.429082    41.701343   -94.883717    40.500002    40.500002    40.500002    37.286149   -3.3243938 
      77         0.77    288.71615   -13149.901    8439.9979    8260.5909    8564.7783    8494.6246   -47.326829   -2.1583435   -149.22687    40.500002    40.500002    40.500002    37.205632   -3.3247855 
      78         0.78    284.60411   -13149.675    8531.2127    8316.0429    8687.6264    8589.9688   -10.801783   -115.75023   -147.31327    40.500002    40.500002    40.500002    37.950888   -3.3241975 
      79         0.79    279.27655   -13149.529    8590.6275    8369.0385    8754.8357    8648.0083     27.57235   -198.93221   -82.873215    40.500002    40.500002    40.500002    38.507584   -3.3234725 
      80          0.8    288.65603    -13143.68    8645.9169    8474.5179    8775.3164    8687.9164    44.400284   -186.81121     20.74972    40.500002    40.500002    40.500002    38.505499   -3.3232224 
      81         0.81    288.21139    -13143.73    8569.3026     8506.175    8668.0724    8533.6604    3.4617356   -60.299332    99.999695    40.500002    40.500002    40.500002    38.332175   -3.3231775 
      82         0.82    285.83464   -13143.746    8553.0786    8595.5769    8644.3478    8419.3113   -36.991048    94.131557    96.484258    40.500002    40.500002    40.500002    38.330755   -3.3228744 
      83         0.83    281.40368   -13143.673    8648.3212    8701.8111    8717.4052    8525.7474     -14.3589    128.38881     44.40022    40.500002    40.500002    40.500002    38.585904   -3.3222835 
      84         0.84    276.83688   -13143.599    8798.8966      8782.84    8822.5542    8791.2956    52.521073     13.93951   -12.517758    40.500002    40.500002    40.500002    38.882554   -3.3216747 
      85         0.85    274.57254   -13143.557    8952.3905    8868.7026    8934.9985    9053.4704    122.01233   -119.12551   -15.919881    40.500002    40.500002    40.500002    39.046874   -3.3213718 
      86         0.86    276.06877   -13143.556    9047.2583    8950.5374    8997.2584     9193.979    172.43755   -159.90221    -16.87072    40.500002    40.500002    40.500002    39.009932   -3.3215647 
      87         0.87    280.97261   -13143.642    9029.5443    8941.2364    8993.3475    9154.0489     171.6588   -78.149206   -45.895528    40.500002    40.500002    40.500002    38.737463   -3.3222199 
      88         0.88    286.97452   -13143.723    8922.9812    8881.1555     8912.831    8974.9572    98.321408    54.553447   -46.589795    40.500002    40.500002    40.500002    38.423104   -3.3230159 
      89         0.89    291.23129   -13143.807    8789.0703    8782.1453    8826.0587    8759.0069   -28.772576    159.71504    14.453823    40.500002    40.500002    40.500002    38.122412   -3.3235869 
      90          0.9    295.51562   -13141.551    8704.2593    8698.6209    8790.6482    8623.5087   -152.17758    197.01372    107.41079    40.500002    40.500002    40.500002    37.995411   -3.3235766 
      91         0.91    288.89293   -13141.438    8703.0688    8672.8827    8816.2123    8620.1114   -211.24927    180.54694    205.74774    40.500002    40.500002    40.500002    38.441439   -3.3226925 
      92         0.92    278.72827   -13141.177    8846.7564    8796.3737     8979.603    8764.2925   -150.44561    107.28065    247.00147    40.500002    40.500002    40.500002    39.329822   -3.3213137 
      93         0.93    272.51346   -13141.011    8985.0747    8917.0641    9143.7883    8894.3718   -20.498613    7.5987564     182.5016    40.500002    40.500002    40.500002    39.836883   -3.3204692 
      94         0.94    274.65073   -13141.128    8982.1287    8916.3765    9150.5046     8879.505    99.164653   -35.266792      83.2604    40.500002    40.500002    40.500002    39.505163   -3.3207745 
      95         0.95    282.42624    -13141.32    8909.5505     8848.344    9050.9605    8829.3472    132.24297   -3.9702449    12.394696    40.500002    40.500002    40.500002     38.80998   -3.3218273 
      96         0.96      290.044   -13141.446    8853.3653    8791.9478     8951.564     8816.584    70.591965    16.496727    14.818065    40.500002    40.500002    40.500002    38.323719   -3.3228432 
      97         0.97    293.69676   -13141.426    8849.2966    8825.0542    8877.1256    8845.7099   -10.842933 -0.036487515    73.004099    40.500002    40.500002    40.500002    38.300389   -3.3233103 
      98         0.98    293.57114   -13141.315         8869    8910.5964    8805.2145    8891.1892   -52.501108    3.5696883    93.407757    40.500002    40.500002    40.500002    38.607281   -3.3232663 
      99         0.99    292.54804   -13141.249    8847.7528    8917.1121    8731.5163    8894.6299   -28.822999    23.906223    46.449292    40.500002    40.500002    40.500002    38.795882   -3.3231177 
     100            1    296.06174   -13139.316    8778.0703    8828.8421     8666.651    8838.7178   -30.045964     26.44853   -55.879508    40.500002    40.500002    40.500002    38.561902   -3.3230883 
Loop time of 0.546713 on 10 procs for 100 steps with 4000 atoms

Performance: 158.035 ns/day, 0.152 hours/ns, 182.911 timesteps/s
92.2% CPU use with 10 MPI tasks x no OpenMP threads

MPI task timing breakdown:
Section |  min time  |  avg time  |  max time  |%varavg| %total
---------------------------------------------------------------
Pair    | 0.25745    | 0.28234    | 0.31145    |   3.6 | 51.64
Neigh   | 0          | 0          | 0          |   0.0 |  0.00
Comm    | 0.021273   | 0.032872   | 0.048065   |   4.1 |  6.01
Output  | 0.17126    | 0.20311    | 0.23424    |   4.8 | 37.15
Modify  | 0.0008252  | 0.0060604  | 0.01897    |   8.2 |  1.11
Other   |            | 0.02233    |            |       |  4.08

Nlocal:        400.000 ave         400 max         400 min
Histogram: 10 0 0 0 0 0 0 0 0 0
Nghost:        3182.00 ave        3182 max        3182 min
Histogram: 10 0 0 0 0 0 0 0 0 0
Neighs:        42578.0 ave       42578 max       42578 min
Histogram: 10 0 0 0 0 0 0 0 0 0

Total # of neighbors = 425780
Ave neighs/atom = 106.44500
Neighbor list builds = 0
Dangerous builds = 0
unfix 		1
unfix 		2

clear
next t
next i
next r
jump Timestep_determination.lmpin
Total wall time: 0:00:59
