LAMMPS (29 Sep 2021)
#####################################################################################################################
# Course: Theory, Modelling, and Simulation of Microstructures (TMS) - Summer semester 2021
# Tutors: Dr. Arun Prakash, Vimal Muthusamy
# Description: Input file for Twin Fault Energy (TFE) of your element
# Originally created by Richard Glaze, 2014. Modified by S. Roy, 2018
######################################################################################################################

# --------------------- INITIALIZAITION ---------------------


clear
units		metal
dimension	3
boundary	p p s
atom_style	atomic
variable 	latparam1 equal 4.05000018187522    ### provide the lattice constant from your calculation
variable 	x_displace equal -1*(${latparam1}/sqrt(6))
variable 	x_displace equal -1*(4.05000018187522/sqrt(6))
variable 	xdim equal ${latparam1}*sqrt(6)/2*10
variable 	xdim equal 4.05000018187522*sqrt(6)/2*10
variable 	ydim equal ${latparam1}*sqrt(2)/2*10
variable 	ydim equal 4.05000018187522*sqrt(2)/2*10
variable 	atomjiggle equal 1.0e-5
variable 	Bx_displace equal 1.0

# --------------------- ATOM DEFINITION ---------------------
lattice		fcc ${latparam1}
lattice		fcc 4.05000018187522
Lattice spacing in x,y,z = 4.0500002 4.0500002 4.0500002
region		1 block -.001 ${xdim} -.001 ${ydim} -.001 16.5 units box
region		1 block -.001 49.6021695188668 -.001 ${ydim} -.001 16.5 units box
region		1 block -.001 49.6021695188668 -.001 28.6378259241072 -.001 16.5 units box
region 		2 block -.001 ${xdim} -.001 ${ydim} 16.5 36.5808 units box
region 		2 block -.001 49.6021695188668 -.001 ${ydim} 16.5 36.5808 units box
region 		2 block -.001 49.6021695188668 -.001 28.6378259241072 16.5 36.5808 units box
region 		3 block -.001 ${xdim} -.001 ${ydim} 19.5 36.5808 units box
region 		3 block -.001 49.6021695188668 -.001 ${ydim} 19.5 36.5808 units box
region 		3 block -.001 49.6021695188668 -.001 28.6378259241072 19.5 36.5808 units box
region		whole block 0 ${xdim} 0 ${ydim} 0 36.5808 units box
region		whole block 0 49.6021695188668 0 ${ydim} 0 36.5808 units box
region		whole block 0 49.6021695188668 0 28.6378259241072 0 36.5808 units box
#the -.001 in the -x and -y and lower limit of region 1 are only to overcome a simple numerical issue but can be considered 0
create_box 	1 whole
Created orthogonal box = (0.0000000 0.0000000 0.0000000) to (49.602170 28.637826 36.580800)
  2 by 2 by 2 MPI processor grid
lattice 	fcc ${latparam1} orient x 1 1 2 orient y -1 1 0 orient z -1 -1 1
lattice 	fcc 4.05000018187522 orient x 1 1 2 orient y -1 1 0 orient z -1 -1 1
Lattice spacing in x,y,z = 6.6136226 5.7275652 7.0148061
create_atoms	1 region 1
Created 1600 atoms
  using lattice units in orthogonal box = (0.0000000 0.0000000 -0.0036580800) to (49.602170 28.637826 36.584458)
  create_atoms CPU = 0.001 seconds
lattice 	fcc ${latparam1} orient x 1 1 2 orient y -1 1 0 orient z -1 -1 1
lattice 	fcc 4.05000018187522 orient x 1 1 2 orient y -1 1 0 orient z -1 -1 1
Lattice spacing in x,y,z = 6.6136226 5.7275652 7.0148061
create_atoms 	1 region 2
Created 1600 atoms
  using lattice units in orthogonal box = (0.0000000 0.0000000 -0.0036580800) to (49.602170 28.637826 36.584458)
  create_atoms CPU = 0.001 seconds

# --------------------- FORCE FIELDS ---------------------
#Provide potential
pair_style      eam/alloy  ### TYPE OF POTENTIAL (eam (OR) eam/alloy)
pair_coeff      *  *  /home03/nm95xule/TMS_SS2022Nan/Mishin_updated-Al-Co-2013.eam.alloy Al  ### POTENTIAL FILENAME


# --------------------- SETTINGS ---------------------

fix 		1 all setforce 0 0 NULL
min_style 	cg
minimize 	0.0 1e-8 20000 20000
WARNING: Using 'neigh_modify every 1 delay 0 check yes' setting during minimization (../min.cpp:188)
Neighbor list info ...
  update every 1 steps, delay 0 steps, check yes
  max neighbors/atom: 2000, page size: 100000
  master list distance cutoff = 8.499539
  ghost atom cutoff = 8.499539
  binsize = 4.2497695, bins = 12 7 9
  1 neighbor lists, perpetual/occasional/extra = 1 0 0
  (1) pair eam/alloy, perpetual
      attributes: half, newton on
      pair build: half/bin/atomonly/newton
      stencil: half/bin/3d
      bin: standard
Per MPI rank memory allocation (min/avg/max) = 4.534 | 4.534 | 4.534 Mbytes
Step Temp E_pair E_mol TotEng Press Volume 
       0            0   -10597.615            0   -10597.615   -3789.6192    49832.993 
      76            0   -10597.638            0   -10597.638   -3489.8067    49832.993 
Loop time of 0.238628 on 8 procs for 76 steps with 3200 atoms

98.9% CPU use with 8 MPI tasks x no OpenMP threads

Minimization stats:
  Stopping criterion = force tolerance
  Energy initial, next-to-last, final = 
      -10597.614794843  -10597.6382170703  -10597.6382170699
  Force two-norm initial, final = 0.49794676 9.5668806e-09
  Force max component initial, final = 0.018671899 3.7445774e-10
  Final line search alpha, max atom move = 1.0000000 3.7445774e-10
  Iterations, force evaluations = 76 151

MPI task timing breakdown:
Section |  min time  |  avg time  |  max time  |%varavg| %total
---------------------------------------------------------------
Pair    | 0.16377    | 0.19061    | 0.22159    |   4.3 | 79.88
Neigh   | 0          | 0          | 0          |   0.0 |  0.00
Comm    | 0.013001   | 0.044008   | 0.070845   |   9.0 | 18.44
Output  | 0          | 0          | 0          |   0.0 |  0.00
Modify  | 0.00021575 | 0.00027058 | 0.00032049 |   0.0 |  0.11
Other   |            | 0.003742   |            |       |  1.57

Nlocal:        400.000 ave         458 max         348 min
Histogram: 2 0 2 0 0 0 2 0 0 2
Nghost:        1740.00 ave        1792 max        1682 min
Histogram: 2 0 0 2 0 0 0 2 0 2
Neighs:        25750.0 ave       31937 max       20513 min
Histogram: 1 1 0 2 1 1 0 0 1 1

Total # of neighbors = 206000
Ave neighs/atom = 64.375000
Neighbor list builds = 0
Dangerous builds = 0

compute 	peratom all pe/atom
compute 	eatoms all reduce sum c_peratom
compute 	csym all centro/atom fcc
thermo 		10
thermo_style 	custom step temp pe c_eatoms pxx pyy pzz lx ly lz fnorm
#dump 		1 all custom 1 dump.relax.1.* id type xs ys zs c_peratom c_csym
run 0
Neighbor list info ...
  update every 1 steps, delay 10 steps, check yes
  max neighbors/atom: 2000, page size: 100000
  master list distance cutoff = 8.499539
  ghost atom cutoff = 8.499539
  binsize = 4.2497695, bins = 12 7 9
  2 neighbor lists, perpetual/occasional/extra = 1 1 0
  (1) pair eam/alloy, perpetual
      attributes: half, newton on
      pair build: half/bin/atomonly/newton
      stencil: half/bin/3d
      bin: standard
  (2) compute centro/atom, occasional
      attributes: full, newton on
      pair build: full/bin/atomonly
      stencil: full/bin/3d
      bin: standard
Per MPI rank memory allocation (min/avg/max) = 4.165 | 4.165 | 4.165 Mbytes
Step Temp PotEng c_eatoms Pxx Pyy Pzz Lx Ly Lz Fnorm 
      76            0   -10597.638   -10597.638   -5236.7201   -5236.7201 -0.00010048401     49.60217    28.637826     35.06788 9.5668807e-09 
Loop time of 3.149e-06 on 8 procs for 0 steps with 3200 atoms

107.2% CPU use with 8 MPI tasks x no OpenMP threads

MPI task timing breakdown:
Section |  min time  |  avg time  |  max time  |%varavg| %total
---------------------------------------------------------------
Pair    | 0          | 0          | 0          |   0.0 |  0.00
Neigh   | 0          | 0          | 0          |   0.0 |  0.00
Comm    | 0          | 0          | 0          |   0.0 |  0.00
Output  | 0          | 0          | 0          |   0.0 |  0.00
Modify  | 0          | 0          | 0          |   0.0 |  0.00
Other   |            | 3.149e-06  |            |       |100.00

Nlocal:        400.000 ave         458 max         348 min
Histogram: 2 0 2 0 0 0 2 0 0 2
Nghost:        1740.00 ave        1792 max        1682 min
Histogram: 2 0 0 2 0 0 0 2 0 2
Neighs:        25750.0 ave       31930 max       20513 min
Histogram: 1 1 0 2 1 1 0 0 1 1
FullNghs:       0.00000 ave           0 max           0 min
Histogram: 8 0 0 0 0 0 0 0 0 0

Total # of neighbors = 206000
Ave neighs/atom = 64.375000
Neighbor list builds = 0
Dangerous builds = 0
#this command creates a model of the script before the displacement and minimization occur
variable 	E equal "c_eatoms"
variable 	Eo equal $E
variable 	Eo equal -10597.6382170702
#variable 	E equal "c_eatoms" computes the initial energy of the model before any sliding is done
#E is necessary to store the initial energy in Eo

group 		bot region 1
1600 atoms in group bot
group 		top region 2
1600 atoms in group top
group 		top2 region 3
1400 atoms in group top2

displace_atoms 	top move ${x_displace} 0.0 0.0 units box
displace_atoms 	top move -1.65340565062889 0.0 0.0 units box
Displacing atoms ...

#displace_atoms is the command neccessary to move atoms into the next stacking arrangement (ie: A -> B)

fix 		1 all setforce 0 0 NULL
min_style 	cg
minimize 	0.0 1e-8 20000 20000
WARNING: Using 'neigh_modify every 1 delay 0 check yes' setting during minimization (../min.cpp:188)
Per MPI rank memory allocation (min/avg/max) = 5.415 | 5.415 | 5.415 Mbytes
Step Temp PotEng c_eatoms Pxx Pyy Pzz Lx Ly Lz Fnorm 
      76            0   -10583.751   -10583.751   -5546.9015   -5546.9015    3136.7197     49.60217    28.637826     35.06788    1.4193364 
      80            0     -10584.4     -10584.4   -5301.8642   -5301.8642     4038.768     49.60217    28.637826     35.06788   0.51301061 
      90            0   -10584.738   -10584.738   -7201.6951   -7201.6951    277.26419     49.60217    28.637826     35.06788   0.02042181 
     100            0    -10584.74    -10584.74   -7325.7989   -7325.7989    29.175855     49.60217    28.637826     35.06788  0.003847173 
     110            0    -10584.74    -10584.74   -7339.0374   -7339.0374    3.0337294     49.60217    28.637826     35.06788 0.00031835567 
     120            0    -10584.74    -10584.74   -7340.4008   -7340.4008   0.31824035     49.60217    28.637826     35.06788 5.1076408e-05 
     130            0    -10584.74    -10584.74   -7340.5459   -7340.5459  0.034812821     49.60217    28.637826     35.06788 4.0413004e-06 
     140            0    -10584.74    -10584.74   -7340.5621   -7340.5621 0.0029904705     49.60217    28.637826     35.06788 3.6545225e-07 
     150            0    -10584.74    -10584.74   -7340.5635   -7340.5635 0.00023238335     49.60217    28.637826     35.06788 4.1156987e-08 
     157            0    -10584.74    -10584.74   -7340.5636   -7340.5636 3.0351483e-05     49.60217    28.637826     35.06788 6.2983689e-09 
Loop time of 0.243284 on 8 procs for 81 steps with 3200 atoms

97.2% CPU use with 8 MPI tasks x no OpenMP threads

Minimization stats:
  Stopping criterion = force tolerance
  Energy initial, next-to-last, final = 
     -10583.7513234678  -10584.7395644522  -10584.7395644533
  Force two-norm initial, final = 1.4193364 6.2983689e-09
  Force max component initial, final = 0.050745525 2.1576105e-10
  Final line search alpha, max atom move = 1.0000000 2.1576105e-10
  Iterations, force evaluations = 81 159

MPI task timing breakdown:
Section |  min time  |  avg time  |  max time  |%varavg| %total
---------------------------------------------------------------
Pair    | 0.17294    | 0.19931    | 0.22527    |   3.4 | 81.93
Neigh   | 0          | 0          | 0          |   0.0 |  0.00
Comm    | 0.012974   | 0.039053   | 0.065605   |   7.8 | 16.05
Output  | 0.00044897 | 0.00045539 | 0.00048907 |   0.0 |  0.19
Modify  | 0.00023224 | 0.00028474 | 0.00032596 |   0.0 |  0.12
Other   |            | 0.004177   |            |       |  1.72

Nlocal:        400.000 ave         458 max         348 min
Histogram: 2 0 2 0 0 0 2 0 0 2
Nghost:        1740.50 ave        1793 max        1683 min
Histogram: 2 0 0 2 0 0 0 2 0 2
Neighs:        26025.0 ave       32553 max       20561 min
Histogram: 2 0 0 2 1 1 0 0 1 1
FullNghs:       0.00000 ave           0 max           0 min
Histogram: 8 0 0 0 0 0 0 0 0 0

Total # of neighbors = 208200
Ave neighs/atom = 65.062500
Neighbor list builds = 0
Dangerous builds = 0

displace_atoms 	all random ${atomjiggle} ${atomjiggle} ${atomjiggle} 87287 units box
displace_atoms 	all random 1e-05 ${atomjiggle} ${atomjiggle} 87287 units box
displace_atoms 	all random 1e-05 1e-05 ${atomjiggle} 87287 units box
displace_atoms 	all random 1e-05 1e-05 1e-05 87287 units box
Displacing atoms ...
minimize 	0.0 1e-8 20000 20000
WARNING: Using 'neigh_modify every 1 delay 0 check yes' setting during minimization (../min.cpp:188)
Per MPI rank memory allocation (min/avg/max) = 5.415 | 5.415 | 5.415 Mbytes
Step Temp PotEng c_eatoms Pxx Pyy Pzz Lx Ly Lz Fnorm 
     157            0    -10584.74    -10584.74    -7312.584   -7312.5839 -0.019322306     49.60217    28.637826    35.202091 0.0015708012 
     160            0    -10584.74    -10584.74   -7312.5815   -7312.5814 -0.0097018779     49.60217    28.637826    35.202091 0.00011694468 
     170            0    -10584.74    -10584.74   -7312.5779   -7312.5778 -0.001284502     49.60217    28.637826    35.202091 3.6040244e-06 
     180            0    -10584.74    -10584.74   -7312.5775   -7312.5774 -0.00058753809     49.60217    28.637826    35.202091 5.9833131e-07 
     190            0    -10584.74    -10584.74   -7312.5772   -7312.5771 7.3732306e-06     49.60217    28.637826    35.202091 2.5768788e-07 
     200            0    -10584.74    -10584.74   -7312.5771    -7312.577 0.00012431108     49.60217    28.637826    35.202091 6.1811205e-08 
     209            0    -10584.74    -10584.74   -7312.5771   -7312.5771 6.0635448e-05     49.60217    28.637826    35.202091 9.8017786e-09 
Loop time of 0.141069 on 8 procs for 52 steps with 3200 atoms

99.2% CPU use with 8 MPI tasks x no OpenMP threads

Minimization stats:
  Stopping criterion = force tolerance
  Energy initial, next-to-last, final = 
     -10584.7395637701  -10584.7395640192  -10584.7395640192
  Force two-norm initial, final = 0.0015708012 9.8017786e-09
  Force max component initial, final = 8.4786363e-05 6.9158670e-10
  Final line search alpha, max atom move = 1.0000000 6.9158670e-10
  Iterations, force evaluations = 52 104

MPI task timing breakdown:
Section |  min time  |  avg time  |  max time  |%varavg| %total
---------------------------------------------------------------
Pair    | 0.11607    | 0.12434    | 0.13118    |   1.6 | 88.14
Neigh   | 0          | 0          | 0          |   0.0 |  0.00
Comm    | 0.0066962  | 0.013715   | 0.022181   |   4.9 |  9.72
Output  | 0.00026794 | 0.00027204 | 0.00029231 |   0.0 |  0.19
Modify  | 0.00017056 | 0.00017854 | 0.00019013 |   0.0 |  0.13
Other   |            | 0.002565   |            |       |  1.82

Nlocal:        400.000 ave         408 max         392 min
Histogram: 1 1 0 1 0 1 2 1 0 1
Nghost:        1740.50 ave        1748 max        1732 min
Histogram: 1 0 0 2 1 1 1 0 0 2
Neighs:        26025.0 ave       28868 max       22958 min
Histogram: 2 1 1 0 0 0 0 0 1 3
FullNghs:       0.00000 ave           0 max           0 min
Histogram: 8 0 0 0 0 0 0 0 0 0

Total # of neighbors = 208200
Ave neighs/atom = 65.062500
Neighbor list builds = 0
Dangerous builds = 0

variable 	Ef equal "c_eatoms"
variable 	Efo equal $Ef
variable 	Efo equal -10584.7395640192f
variable	Cf equal 1.60217657e-16
variable 	A equal (${xdim}*${ydim})*1e-20
variable 	A equal (49.6021695188668*${ydim})*1e-20
variable 	A equal (49.6021695188668*28.6378259241072)*1e-20
variable 	SFE equal ((${Ef}-${Eo})*${Cf})/${A}
variable 	SFE equal ((-10584.7395640192-${Eo})*${Cf})/${A}
variable 	SFE equal ((-10584.7395640192--10597.6382170702)*${Cf})/${A}
variable 	SFE equal ((-10584.7395640192--10597.6382170702)*1.60217657e-16)/${A}
variable 	SFE equal ((-10584.7395640192--10597.6382170702)*1.60217657e-16)/1.42049829613936e-17
variable 	Efomj equal ${Ef}*${Cf}/${A}
variable 	Efomj equal -10584.7395640192*${Cf}/${A}
variable 	Efomj equal -10584.7395640192*1.60217657e-16/${A}
variable 	Efomj equal -10584.7395640192*1.60217657e-16/1.42049829613936e-17

####################################
print "Initial energy of atoms = ${Eo} eV"
Initial energy of atoms = -10597.6382170702 eV
print "Initial energy before twinning Efo = ${Ef} $Efomj" # in SFE in mJ/m^2"
Initial energy before twinning Efo = -10584.7395640192 -10584.7395640192fomj

#----------- for twin fault energy -----------------------
variable	Ndiscrt equal 30
variable    	i loop ${Ndiscrt}
variable    	i loop 30
label       	loop

variable 	xt_displace equal -1*(${latparam1}/sqrt(6)*${i}/${Ndiscrt})
variable 	xt_displace equal -1*(4.05000018187522/sqrt(6)*${i}/${Ndiscrt})
variable 	xt_displace equal -1*(4.05000018187522/sqrt(6)*1/${Ndiscrt})
variable 	xt_displace equal -1*(4.05000018187522/sqrt(6)*1/30)
variable 	Bxt_displace equal 1.0+${i}/${Ndiscrt}
variable 	Bxt_displace equal 1.0+1/${Ndiscrt}
variable 	Bxt_displace equal 1.0+1/30

displace_atoms 	top2 move ${xt_displace} 0.0 0.0 units box
displace_atoms 	top2 move -0.0551135216876298 0.0 0.0 units box
Displacing atoms ...

fix 		1 all setforce 0 0 NULL
min_style 	cg
minimize 	0.0 1e-8 20000 20000
WARNING: Using 'neigh_modify every 1 delay 0 check yes' setting during minimization (../min.cpp:188)
Per MPI rank memory allocation (min/avg/max) = 5.415 | 5.415 | 5.415 Mbytes
Step Temp PotEng c_eatoms Pxx Pyy Pzz Lx Ly Lz Fnorm 
     209            0   -10584.615   -10584.615   -7336.3368   -7261.7922    18.478822     49.60217    28.637826    35.202089  0.041114784 
     210            0   -10584.616   -10584.616   -7336.0324   -7262.1348    18.542948     49.60217    28.637826    35.202089  0.012945116 
     220            0   -10584.616   -10584.616   -7344.0932   -7270.3296    4.6753267     49.60217    28.637826    35.202089 0.0021939791 
     230            0   -10584.616   -10584.616   -7346.4963   -7272.7363 -0.00086791685     49.60217    28.637826    35.202089 4.0155267e-07 
     240            0   -10584.616   -10584.616    -7346.496   -7272.7359 -0.00013809422     49.60217    28.637826    35.202089 2.4799239e-08 
     250            0   -10584.616   -10584.616   -7346.4959   -7272.7359 1.1373237e-05     49.60217    28.637826    35.202089 7.1321473e-09 
Loop time of 0.110711 on 8 procs for 41 steps with 3200 atoms

99.0% CPU use with 8 MPI tasks x no OpenMP threads

Minimization stats:
  Stopping criterion = force tolerance
  Energy initial, next-to-last, final = 
       -10584.61549003  -10584.6156487311  -10584.6156487311
  Force two-norm initial, final = 0.041114784 7.1321473e-09
  Force max component initial, final = 0.0021558828 4.3682921e-10
  Final line search alpha, max atom move = 1.0000000 4.3682921e-10
  Iterations, force evaluations = 41 82

MPI task timing breakdown:
Section |  min time  |  avg time  |  max time  |%varavg| %total
---------------------------------------------------------------
Pair    | 0.09258    | 0.098172   | 0.10307    |   1.4 | 88.67
Neigh   | 0          | 0          | 0          |   0.0 |  0.00
Comm    | 0.0052327  | 0.010233   | 0.015918   |   4.3 |  9.24
Output  | 0.00022924 | 0.00023347 | 0.00025005 |   0.0 |  0.21
Modify  | 0.00015096 | 0.00015763 | 0.00016517 |   0.0 |  0.14
Other   |            | 0.001915   |            |       |  1.73

Nlocal:        400.000 ave         404 max         394 min
Histogram: 1 0 0 1 1 0 1 0 2 2
Nghost:        1740.50 ave        1747 max        1737 min
Histogram: 2 1 1 0 1 1 1 0 0 1
Neighs:        26025.0 ave       28877 max       23144 min
Histogram: 2 2 0 0 0 0 0 0 1 3
FullNghs:       0.00000 ave           0 max           0 min
Histogram: 8 0 0 0 0 0 0 0 0 0

Total # of neighbors = 208200
Ave neighs/atom = 65.062500
Neighbor list builds = 0
Dangerous builds = 0

variable 	Eftwn equal "c_eatoms"
variable 	Eftwnmj equal ${Eftwn}*${Cf}/${A}
variable 	Eftwnmj equal -10584.6156487311*${Cf}/${A}
variable 	Eftwnmj equal -10584.6156487311*1.60217657e-16/${A}
variable 	Eftwnmj equal -10584.6156487311*1.60217657e-16/1.42049829613936e-17
variable 	TFEf equal ${Eftwnmj}-${Efomj}
variable 	TFEf equal -119383.62221864-${Efomj}
variable 	TFEf equal -119383.62221864--119385.019856158

print 		"displacement and TFE = ${Bxt_displace} ${TFEf}" # in SFE in mJ/m^2"
displacement and TFE = 1.03333333333333 1.39763751800638

next 		i
jump		TFE_displacement1.lmpin
#####################################################################################################################
# Course: Theory, Modelling, and Simulation of Microstructures (TMS) - Summer semester 2021
# Tutors: Dr. Arun Prakash, Vimal Muthusamy
# Description: Input file for Twin Fault Energy (TFE) of your element
# Originally created by Richard Glaze, 2014. Modified by S. Roy, 2018
######################################################################################################################

# --------------------- INITIALIZAITION ---------------------


clear
units		metal
dimension	3
boundary	p p s
atom_style	atomic
variable 	latparam1 equal 4.05000018187522    ### provide the lattice constant from your calculation
variable 	x_displace equal -1*(${latparam1}/sqrt(6))
variable 	x_displace equal -1*(4.05000018187522/sqrt(6))
variable 	xdim equal ${latparam1}*sqrt(6)/2*10
variable 	xdim equal 4.05000018187522*sqrt(6)/2*10
variable 	ydim equal ${latparam1}*sqrt(2)/2*10
variable 	ydim equal 4.05000018187522*sqrt(2)/2*10
variable 	atomjiggle equal 1.0e-5
variable 	Bx_displace equal 1.0

# --------------------- ATOM DEFINITION ---------------------
lattice		fcc ${latparam1}
lattice		fcc 4.05000018187522
Lattice spacing in x,y,z = 4.0500002 4.0500002 4.0500002
region		1 block -.001 ${xdim} -.001 ${ydim} -.001 16.5 units box
region		1 block -.001 49.6021695188668 -.001 ${ydim} -.001 16.5 units box
region		1 block -.001 49.6021695188668 -.001 28.6378259241072 -.001 16.5 units box
region 		2 block -.001 ${xdim} -.001 ${ydim} 16.5 36.5808 units box
region 		2 block -.001 49.6021695188668 -.001 ${ydim} 16.5 36.5808 units box
region 		2 block -.001 49.6021695188668 -.001 28.6378259241072 16.5 36.5808 units box
region 		3 block -.001 ${xdim} -.001 ${ydim} 19.5 36.5808 units box
region 		3 block -.001 49.6021695188668 -.001 ${ydim} 19.5 36.5808 units box
region 		3 block -.001 49.6021695188668 -.001 28.6378259241072 19.5 36.5808 units box
region		whole block 0 ${xdim} 0 ${ydim} 0 36.5808 units box
region		whole block 0 49.6021695188668 0 ${ydim} 0 36.5808 units box
region		whole block 0 49.6021695188668 0 28.6378259241072 0 36.5808 units box
#the -.001 in the -x and -y and lower limit of region 1 are only to overcome a simple numerical issue but can be considered 0
create_box 	1 whole
Created orthogonal box = (0.0000000 0.0000000 0.0000000) to (49.602170 28.637826 36.580800)
  2 by 2 by 2 MPI processor grid
lattice 	fcc ${latparam1} orient x 1 1 2 orient y -1 1 0 orient z -1 -1 1
lattice 	fcc 4.05000018187522 orient x 1 1 2 orient y -1 1 0 orient z -1 -1 1
Lattice spacing in x,y,z = 6.6136226 5.7275652 7.0148061
create_atoms	1 region 1
Created 1600 atoms
  using lattice units in orthogonal box = (0.0000000 0.0000000 -0.0036580800) to (49.602170 28.637826 36.584458)
  create_atoms CPU = 0.000 seconds
lattice 	fcc ${latparam1} orient x 1 1 2 orient y -1 1 0 orient z -1 -1 1
lattice 	fcc 4.05000018187522 orient x 1 1 2 orient y -1 1 0 orient z -1 -1 1
Lattice spacing in x,y,z = 6.6136226 5.7275652 7.0148061
create_atoms 	1 region 2
Created 1600 atoms
  using lattice units in orthogonal box = (0.0000000 0.0000000 -0.0036580800) to (49.602170 28.637826 36.584458)
  create_atoms CPU = 0.000 seconds

# --------------------- FORCE FIELDS ---------------------
#Provide potential
pair_style      eam/alloy  ### TYPE OF POTENTIAL (eam (OR) eam/alloy)
pair_coeff      *  *  /home03/nm95xule/TMS_SS2022Nan/Mishin_updated-Al-Co-2013.eam.alloy Al  ### POTENTIAL FILENAME


# --------------------- SETTINGS ---------------------

fix 		1 all setforce 0 0 NULL
min_style 	cg
minimize 	0.0 1e-8 20000 20000
WARNING: Using 'neigh_modify every 1 delay 0 check yes' setting during minimization (../min.cpp:188)
Neighbor list info ...
  update every 1 steps, delay 0 steps, check yes
  max neighbors/atom: 2000, page size: 100000
  master list distance cutoff = 8.499539
  ghost atom cutoff = 8.499539
  binsize = 4.2497695, bins = 12 7 9
  1 neighbor lists, perpetual/occasional/extra = 1 0 0
  (1) pair eam/alloy, perpetual
      attributes: half, newton on
      pair build: half/bin/atomonly/newton
      stencil: half/bin/3d
      bin: standard
Per MPI rank memory allocation (min/avg/max) = 4.534 | 4.534 | 4.534 Mbytes
Step Temp E_pair E_mol TotEng Press Volume 
       0            0   -10597.615            0   -10597.615   -3789.6192    49832.993 
      76            0   -10597.638            0   -10597.638   -3489.8067    49832.993 
Loop time of 0.230975 on 8 procs for 76 steps with 3200 atoms

97.1% CPU use with 8 MPI tasks x no OpenMP threads

Minimization stats:
  Stopping criterion = force tolerance
  Energy initial, next-to-last, final = 
      -10597.614794843  -10597.6382170703  -10597.6382170699
  Force two-norm initial, final = 0.49794676 9.5668806e-09
  Force max component initial, final = 0.018671899 3.7445774e-10
  Final line search alpha, max atom move = 1.0000000 3.7445774e-10
  Iterations, force evaluations = 76 151

MPI task timing breakdown:
Section |  min time  |  avg time  |  max time  |%varavg| %total
---------------------------------------------------------------
Pair    | 0.1599     | 0.18149    | 0.21741    |   4.1 | 78.57
Neigh   | 0          | 0          | 0          |   0.0 |  0.00
Comm    | 0.0099472  | 0.045875   | 0.067469   |   8.1 | 19.86
Output  | 0          | 0          | 0          |   0.0 |  0.00
Modify  | 0.00021637 | 0.00025621 | 0.00031428 |   0.0 |  0.11
Other   |            | 0.003359   |            |       |  1.45

Nlocal:        400.000 ave         458 max         348 min
Histogram: 2 0 2 0 0 0 2 0 0 2
Nghost:        1740.00 ave        1792 max        1682 min
Histogram: 2 0 0 2 0 0 0 2 0 2
Neighs:        25750.0 ave       31937 max       20513 min
Histogram: 1 1 0 2 1 1 0 0 1 1

Total # of neighbors = 206000
Ave neighs/atom = 64.375000
Neighbor list builds = 0
Dangerous builds = 0

compute 	peratom all pe/atom
compute 	eatoms all reduce sum c_peratom
compute 	csym all centro/atom fcc
thermo 		10
thermo_style 	custom step temp pe c_eatoms pxx pyy pzz lx ly lz fnorm
#dump 		1 all custom 1 dump.relax.1.* id type xs ys zs c_peratom c_csym
run 0
Neighbor list info ...
  update every 1 steps, delay 10 steps, check yes
  max neighbors/atom: 2000, page size: 100000
  master list distance cutoff = 8.499539
  ghost atom cutoff = 8.499539
  binsize = 4.2497695, bins = 12 7 9
  2 neighbor lists, perpetual/occasional/extra = 1 1 0
  (1) pair eam/alloy, perpetual
      attributes: half, newton on
      pair build: half/bin/atomonly/newton
      stencil: half/bin/3d
      bin: standard
  (2) compute centro/atom, occasional
      attributes: full, newton on
      pair build: full/bin/atomonly
      stencil: full/bin/3d
      bin: standard
Per MPI rank memory allocation (min/avg/max) = 4.165 | 4.165 | 4.165 Mbytes
Step Temp PotEng c_eatoms Pxx Pyy Pzz Lx Ly Lz Fnorm 
      76            0   -10597.638   -10597.638   -5236.7201   -5236.7201 -0.00010048401     49.60217    28.637826     35.06788 9.5668807e-09 
Loop time of 2.90887e-06 on 8 procs for 0 steps with 3200 atoms

124.6% CPU use with 8 MPI tasks x no OpenMP threads

MPI task timing breakdown:
Section |  min time  |  avg time  |  max time  |%varavg| %total
---------------------------------------------------------------
Pair    | 0          | 0          | 0          |   0.0 |  0.00
Neigh   | 0          | 0          | 0          |   0.0 |  0.00
Comm    | 0          | 0          | 0          |   0.0 |  0.00
Output  | 0          | 0          | 0          |   0.0 |  0.00
Modify  | 0          | 0          | 0          |   0.0 |  0.00
Other   |            | 2.909e-06  |            |       |100.00

Nlocal:        400.000 ave         458 max         348 min
Histogram: 2 0 2 0 0 0 2 0 0 2
Nghost:        1740.00 ave        1792 max        1682 min
Histogram: 2 0 0 2 0 0 0 2 0 2
Neighs:        25750.0 ave       31930 max       20513 min
Histogram: 1 1 0 2 1 1 0 0 1 1
FullNghs:       0.00000 ave           0 max           0 min
Histogram: 8 0 0 0 0 0 0 0 0 0

Total # of neighbors = 206000
Ave neighs/atom = 64.375000
Neighbor list builds = 0
Dangerous builds = 0
#this command creates a model of the script before the displacement and minimization occur
variable 	E equal "c_eatoms"
variable 	Eo equal $E
variable 	Eo equal -10597.6382170702
#variable 	E equal "c_eatoms" computes the initial energy of the model before any sliding is done
#E is necessary to store the initial energy in Eo

group 		bot region 1
1600 atoms in group bot
group 		top region 2
1600 atoms in group top
group 		top2 region 3
1400 atoms in group top2

displace_atoms 	top move ${x_displace} 0.0 0.0 units box
displace_atoms 	top move -1.65340565062889 0.0 0.0 units box
Displacing atoms ...

#displace_atoms is the command neccessary to move atoms into the next stacking arrangement (ie: A -> B)

fix 		1 all setforce 0 0 NULL
min_style 	cg
minimize 	0.0 1e-8 20000 20000
WARNING: Using 'neigh_modify every 1 delay 0 check yes' setting during minimization (../min.cpp:188)
Per MPI rank memory allocation (min/avg/max) = 5.415 | 5.415 | 5.415 Mbytes
Step Temp PotEng c_eatoms Pxx Pyy Pzz Lx Ly Lz Fnorm 
      76            0   -10583.751   -10583.751   -5546.9015   -5546.9015    3136.7197     49.60217    28.637826     35.06788    1.4193364 
      80            0     -10584.4     -10584.4   -5301.8642   -5301.8642     4038.768     49.60217    28.637826     35.06788   0.51301061 
      90            0   -10584.738   -10584.738   -7201.6951   -7201.6951    277.26419     49.60217    28.637826     35.06788   0.02042181 
     100            0    -10584.74    -10584.74   -7325.7989   -7325.7989    29.175855     49.60217    28.637826     35.06788  0.003847173 
     110            0    -10584.74    -10584.74   -7339.0374   -7339.0374    3.0337294     49.60217    28.637826     35.06788 0.00031835567 
     120            0    -10584.74    -10584.74   -7340.4008   -7340.4008   0.31824035     49.60217    28.637826     35.06788 5.1076408e-05 
     130            0    -10584.74    -10584.74   -7340.5459   -7340.5459  0.034812821     49.60217    28.637826     35.06788 4.0413004e-06 
     140            0    -10584.74    -10584.74   -7340.5621   -7340.5621 0.0029904705     49.60217    28.637826     35.06788 3.6545225e-07 
     150            0    -10584.74    -10584.74   -7340.5635   -7340.5635 0.00023238335     49.60217    28.637826     35.06788 4.1156987e-08 
     157            0    -10584.74    -10584.74   -7340.5636   -7340.5636 3.0351483e-05     49.60217    28.637826     35.06788 6.2983689e-09 
Loop time of 0.237907 on 8 procs for 81 steps with 3200 atoms

96.1% CPU use with 8 MPI tasks x no OpenMP threads

Minimization stats:
  Stopping criterion = force tolerance
  Energy initial, next-to-last, final = 
     -10583.7513234678  -10584.7395644522  -10584.7395644533
  Force two-norm initial, final = 1.4193364 6.2983689e-09
  Force max component initial, final = 0.050745525 2.1576105e-10
  Final line search alpha, max atom move = 1.0000000 2.1576105e-10
  Iterations, force evaluations = 81 159

MPI task timing breakdown:
Section |  min time  |  avg time  |  max time  |%varavg| %total
---------------------------------------------------------------
Pair    | 0.17201    | 0.1928     | 0.22291    |   3.6 | 81.04
Neigh   | 0          | 0          | 0          |   0.0 |  0.00
Comm    | 0.010478   | 0.040641   | 0.06149    |   7.9 | 17.08
Output  | 0.00043965 | 0.00044795 | 0.00048634 |   0.0 |  0.19
Modify  | 0.00023227 | 0.00027555 | 0.00032325 |   0.0 |  0.12
Other   |            | 0.003745   |            |       |  1.57

Nlocal:        400.000 ave         458 max         348 min
Histogram: 2 0 2 0 0 0 2 0 0 2
Nghost:        1740.50 ave        1793 max        1683 min
Histogram: 2 0 0 2 0 0 0 2 0 2
Neighs:        26025.0 ave       32553 max       20561 min
Histogram: 2 0 0 2 1 1 0 0 1 1
FullNghs:       0.00000 ave           0 max           0 min
Histogram: 8 0 0 0 0 0 0 0 0 0

Total # of neighbors = 208200
Ave neighs/atom = 65.062500
Neighbor list builds = 0
Dangerous builds = 0

displace_atoms 	all random ${atomjiggle} ${atomjiggle} ${atomjiggle} 87287 units box
displace_atoms 	all random 1e-05 ${atomjiggle} ${atomjiggle} 87287 units box
displace_atoms 	all random 1e-05 1e-05 ${atomjiggle} 87287 units box
displace_atoms 	all random 1e-05 1e-05 1e-05 87287 units box
Displacing atoms ...
minimize 	0.0 1e-8 20000 20000
WARNING: Using 'neigh_modify every 1 delay 0 check yes' setting during minimization (../min.cpp:188)
Per MPI rank memory allocation (min/avg/max) = 5.415 | 5.415 | 5.415 Mbytes
Step Temp PotEng c_eatoms Pxx Pyy Pzz Lx Ly Lz Fnorm 
     157            0    -10584.74    -10584.74    -7312.584   -7312.5839 -0.019322306     49.60217    28.637826    35.202091 0.0015708012 
     160            0    -10584.74    -10584.74   -7312.5815   -7312.5814 -0.0097018779     49.60217    28.637826    35.202091 0.00011694468 
     170            0    -10584.74    -10584.74   -7312.5779   -7312.5778 -0.001284502     49.60217    28.637826    35.202091 3.6040244e-06 
     180            0    -10584.74    -10584.74   -7312.5775   -7312.5774 -0.00058753809     49.60217    28.637826    35.202091 5.9833131e-07 
     190            0    -10584.74    -10584.74   -7312.5772   -7312.5771 7.3732306e-06     49.60217    28.637826    35.202091 2.5768788e-07 
     200            0    -10584.74    -10584.74   -7312.5771    -7312.577 0.00012431108     49.60217    28.637826    35.202091 6.1811205e-08 
     209            0    -10584.74    -10584.74   -7312.5771   -7312.5771 6.0635448e-05     49.60217    28.637826    35.202091 9.8017786e-09 
Loop time of 0.138798 on 8 procs for 52 steps with 3200 atoms

98.1% CPU use with 8 MPI tasks x no OpenMP threads

Minimization stats:
  Stopping criterion = force tolerance
  Energy initial, next-to-last, final = 
     -10584.7395637701  -10584.7395640192  -10584.7395640192
  Force two-norm initial, final = 0.0015708012 9.8017786e-09
  Force max component initial, final = 8.4786363e-05 6.9158670e-10
  Final line search alpha, max atom move = 1.0000000 6.9158670e-10
  Iterations, force evaluations = 52 104

MPI task timing breakdown:
Section |  min time  |  avg time  |  max time  |%varavg| %total
---------------------------------------------------------------
Pair    | 0.11582    | 0.12371    | 0.12931    |   1.5 | 89.13
Neigh   | 0          | 0          | 0          |   0.0 |  0.00
Comm    | 0.0066245  | 0.012317   | 0.020299   |   4.8 |  8.87
Output  | 0.00028576 | 0.0002913  | 0.00031152 |   0.0 |  0.21
Modify  | 0.00016912 | 0.00017591 | 0.00018355 |   0.0 |  0.13
Other   |            | 0.002306   |            |       |  1.66

Nlocal:        400.000 ave         408 max         392 min
Histogram: 1 1 0 1 0 1 2 1 0 1
Nghost:        1740.50 ave        1748 max        1732 min
Histogram: 1 0 0 2 1 1 1 0 0 2
Neighs:        26025.0 ave       28868 max       22958 min
Histogram: 2 1 1 0 0 0 0 0 1 3
FullNghs:       0.00000 ave           0 max           0 min
Histogram: 8 0 0 0 0 0 0 0 0 0

Total # of neighbors = 208200
Ave neighs/atom = 65.062500
Neighbor list builds = 0
Dangerous builds = 0

variable 	Ef equal "c_eatoms"
variable 	Efo equal $Ef
variable 	Efo equal -10584.7395640192f
variable	Cf equal 1.60217657e-16
variable 	A equal (${xdim}*${ydim})*1e-20
variable 	A equal (49.6021695188668*${ydim})*1e-20
variable 	A equal (49.6021695188668*28.6378259241072)*1e-20
variable 	SFE equal ((${Ef}-${Eo})*${Cf})/${A}
variable 	SFE equal ((-10584.7395640192-${Eo})*${Cf})/${A}
variable 	SFE equal ((-10584.7395640192--10597.6382170702)*${Cf})/${A}
variable 	SFE equal ((-10584.7395640192--10597.6382170702)*1.60217657e-16)/${A}
variable 	SFE equal ((-10584.7395640192--10597.6382170702)*1.60217657e-16)/1.42049829613936e-17
variable 	Efomj equal ${Ef}*${Cf}/${A}
variable 	Efomj equal -10584.7395640192*${Cf}/${A}
variable 	Efomj equal -10584.7395640192*1.60217657e-16/${A}
variable 	Efomj equal -10584.7395640192*1.60217657e-16/1.42049829613936e-17

####################################
print "Initial energy of atoms = ${Eo} eV"
Initial energy of atoms = -10597.6382170702 eV
print "Initial energy before twinning Efo = ${Ef} $Efomj" # in SFE in mJ/m^2"
Initial energy before twinning Efo = -10584.7395640192 -10584.7395640192fomj

#----------- for twin fault energy -----------------------
variable	Ndiscrt equal 30
variable    	i loop ${Ndiscrt}
variable    	i loop 30
label       	loop

variable 	xt_displace equal -1*(${latparam1}/sqrt(6)*${i}/${Ndiscrt})
variable 	xt_displace equal -1*(4.05000018187522/sqrt(6)*${i}/${Ndiscrt})
variable 	xt_displace equal -1*(4.05000018187522/sqrt(6)*2/${Ndiscrt})
variable 	xt_displace equal -1*(4.05000018187522/sqrt(6)*2/30)
variable 	Bxt_displace equal 1.0+${i}/${Ndiscrt}
variable 	Bxt_displace equal 1.0+2/${Ndiscrt}
variable 	Bxt_displace equal 1.0+2/30

displace_atoms 	top2 move ${xt_displace} 0.0 0.0 units box
displace_atoms 	top2 move -0.11022704337526 0.0 0.0 units box
Displacing atoms ...

fix 		1 all setforce 0 0 NULL
min_style 	cg
minimize 	0.0 1e-8 20000 20000
WARNING: Using 'neigh_modify every 1 delay 0 check yes' setting during minimization (../min.cpp:188)
Per MPI rank memory allocation (min/avg/max) = 5.415 | 5.415 | 5.415 Mbytes
Step Temp PotEng c_eatoms Pxx Pyy Pzz Lx Ly Lz Fnorm 
     209            0    -10584.26    -10584.26   -7326.5923    -7199.682    66.214182     49.60217    28.637826    35.202089   0.15534808 
     210            0   -10584.261   -10584.261   -7323.3865   -7202.1233    66.852786     49.60217    28.637826    35.202089  0.048442331 
     220            0   -10584.262   -10584.262   -7351.6875   -7231.7292    17.375883     49.60217    28.637826    35.202089 0.0080925983 
     230            0   -10584.262   -10584.262   -7360.5587   -7240.6468 -0.011050982     49.60217    28.637826    35.202089 3.9697433e-06 
     240            0   -10584.262   -10584.262   -7360.5538   -7240.6419 -0.00025053692     49.60217    28.637826    35.202089 1.1996752e-07 
     250            0   -10584.262   -10584.262   -7360.5536   -7240.6418 9.3900837e-06     49.60217    28.637826    35.202089 2.1382888e-08 
     260            0   -10584.262   -10584.262   -7360.5536   -7240.6418 5.115887e-06     49.60217    28.637826    35.202089 9.9254708e-09 
Loop time of 0.137598 on 8 procs for 51 steps with 3200 atoms

91.6% CPU use with 8 MPI tasks x no OpenMP threads

Minimization stats:
  Stopping criterion = force tolerance
  Energy initial, next-to-last, final = 
     -10584.2597324805  -10584.2619599274  -10584.2619599274
  Force two-norm initial, final = 0.15534808 9.9254708e-09
  Force max component initial, final = 0.0081697765 6.1421494e-10
  Final line search alpha, max atom move = 1.0000000 6.1421494e-10
  Iterations, force evaluations = 51 102

MPI task timing breakdown:
Section |  min time  |  avg time  |  max time  |%varavg| %total
---------------------------------------------------------------
Pair    | 0.11452    | 0.1219     | 0.12813    |   1.4 | 88.59
Neigh   | 0          | 0          | 0          |   0.0 |  0.00
Comm    | 0.0065077  | 0.012848   | 0.020336   |   4.6 |  9.34
Output  | 0.00026768 | 0.00027237 | 0.00029153 |   0.0 |  0.20
Modify  | 0.00016869 | 0.00017388 | 0.0001813  |   0.0 |  0.13
Other   |            | 0.002399   |            |       |  1.74

Nlocal:        400.000 ave         404 max         394 min
Histogram: 1 0 0 1 1 0 1 0 2 2
Nghost:        1740.50 ave        1747 max        1737 min
Histogram: 2 1 1 0 1 1 1 0 0 1
Neighs:        26050.0 ave       28877 max       23194 min
Histogram: 2 2 0 0 0 0 0 0 1 3
FullNghs:       0.00000 ave           0 max           0 min
Histogram: 8 0 0 0 0 0 0 0 0 0

Total # of neighbors = 208400
Ave neighs/atom = 65.125000
Neighbor list builds = 0
Dangerous builds = 0

variable 	Eftwn equal "c_eatoms"
variable 	Eftwnmj equal ${Eftwn}*${Cf}/${A}
variable 	Eftwnmj equal -10584.2619599274*${Cf}/${A}
variable 	Eftwnmj equal -10584.2619599274*1.60217657e-16/${A}
variable 	Eftwnmj equal -10584.2619599274*1.60217657e-16/1.42049829613936e-17
variable 	TFEf equal ${Eftwnmj}-${Efomj}
variable 	TFEf equal -119379.632971234-${Efomj}
variable 	TFEf equal -119379.632971234--119385.019856158

print 		"displacement and TFE = ${Bxt_displace} ${TFEf}" # in SFE in mJ/m^2"
displacement and TFE = 1.06666666666667 5.38688492400979

next 		i
jump		TFE_displacement1.lmpin
#####################################################################################################################
# Course: Theory, Modelling, and Simulation of Microstructures (TMS) - Summer semester 2021
# Tutors: Dr. Arun Prakash, Vimal Muthusamy
# Description: Input file for Twin Fault Energy (TFE) of your element
# Originally created by Richard Glaze, 2014. Modified by S. Roy, 2018
######################################################################################################################

# --------------------- INITIALIZAITION ---------------------


clear
units		metal
dimension	3
boundary	p p s
atom_style	atomic
variable 	latparam1 equal 4.05000018187522    ### provide the lattice constant from your calculation
variable 	x_displace equal -1*(${latparam1}/sqrt(6))
variable 	x_displace equal -1*(4.05000018187522/sqrt(6))
variable 	xdim equal ${latparam1}*sqrt(6)/2*10
variable 	xdim equal 4.05000018187522*sqrt(6)/2*10
variable 	ydim equal ${latparam1}*sqrt(2)/2*10
variable 	ydim equal 4.05000018187522*sqrt(2)/2*10
variable 	atomjiggle equal 1.0e-5
variable 	Bx_displace equal 1.0

# --------------------- ATOM DEFINITION ---------------------
lattice		fcc ${latparam1}
lattice		fcc 4.05000018187522
Lattice spacing in x,y,z = 4.0500002 4.0500002 4.0500002
region		1 block -.001 ${xdim} -.001 ${ydim} -.001 16.5 units box
region		1 block -.001 49.6021695188668 -.001 ${ydim} -.001 16.5 units box
region		1 block -.001 49.6021695188668 -.001 28.6378259241072 -.001 16.5 units box
region 		2 block -.001 ${xdim} -.001 ${ydim} 16.5 36.5808 units box
region 		2 block -.001 49.6021695188668 -.001 ${ydim} 16.5 36.5808 units box
region 		2 block -.001 49.6021695188668 -.001 28.6378259241072 16.5 36.5808 units box
region 		3 block -.001 ${xdim} -.001 ${ydim} 19.5 36.5808 units box
region 		3 block -.001 49.6021695188668 -.001 ${ydim} 19.5 36.5808 units box
region 		3 block -.001 49.6021695188668 -.001 28.6378259241072 19.5 36.5808 units box
region		whole block 0 ${xdim} 0 ${ydim} 0 36.5808 units box
region		whole block 0 49.6021695188668 0 ${ydim} 0 36.5808 units box
region		whole block 0 49.6021695188668 0 28.6378259241072 0 36.5808 units box
#the -.001 in the -x and -y and lower limit of region 1 are only to overcome a simple numerical issue but can be considered 0
create_box 	1 whole
Created orthogonal box = (0.0000000 0.0000000 0.0000000) to (49.602170 28.637826 36.580800)
  2 by 2 by 2 MPI processor grid
lattice 	fcc ${latparam1} orient x 1 1 2 orient y -1 1 0 orient z -1 -1 1
lattice 	fcc 4.05000018187522 orient x 1 1 2 orient y -1 1 0 orient z -1 -1 1
Lattice spacing in x,y,z = 6.6136226 5.7275652 7.0148061
create_atoms	1 region 1
Created 1600 atoms
  using lattice units in orthogonal box = (0.0000000 0.0000000 -0.0036580800) to (49.602170 28.637826 36.584458)
  create_atoms CPU = 0.000 seconds
lattice 	fcc ${latparam1} orient x 1 1 2 orient y -1 1 0 orient z -1 -1 1
lattice 	fcc 4.05000018187522 orient x 1 1 2 orient y -1 1 0 orient z -1 -1 1
Lattice spacing in x,y,z = 6.6136226 5.7275652 7.0148061
create_atoms 	1 region 2
Created 1600 atoms
  using lattice units in orthogonal box = (0.0000000 0.0000000 -0.0036580800) to (49.602170 28.637826 36.584458)
  create_atoms CPU = 0.000 seconds

# --------------------- FORCE FIELDS ---------------------
#Provide potential
pair_style      eam/alloy  ### TYPE OF POTENTIAL (eam (OR) eam/alloy)
pair_coeff      *  *  /home03/nm95xule/TMS_SS2022Nan/Mishin_updated-Al-Co-2013.eam.alloy Al  ### POTENTIAL FILENAME


# --------------------- SETTINGS ---------------------

fix 		1 all setforce 0 0 NULL
min_style 	cg
minimize 	0.0 1e-8 20000 20000
WARNING: Using 'neigh_modify every 1 delay 0 check yes' setting during minimization (../min.cpp:188)
Neighbor list info ...
  update every 1 steps, delay 0 steps, check yes
  max neighbors/atom: 2000, page size: 100000
  master list distance cutoff = 8.499539
  ghost atom cutoff = 8.499539
  binsize = 4.2497695, bins = 12 7 9
  1 neighbor lists, perpetual/occasional/extra = 1 0 0
  (1) pair eam/alloy, perpetual
      attributes: half, newton on
      pair build: half/bin/atomonly/newton
      stencil: half/bin/3d
      bin: standard
Per MPI rank memory allocation (min/avg/max) = 4.534 | 4.534 | 4.534 Mbytes
Step Temp E_pair E_mol TotEng Press Volume 
       0            0   -10597.615            0   -10597.615   -3789.6192    49832.993 
      76            0   -10597.638            0   -10597.638   -3489.8067    49832.993 
Loop time of 0.215618 on 8 procs for 76 steps with 3200 atoms

96.4% CPU use with 8 MPI tasks x no OpenMP threads

Minimization stats:
  Stopping criterion = force tolerance
  Energy initial, next-to-last, final = 
      -10597.614794843  -10597.6382170703  -10597.6382170699
  Force two-norm initial, final = 0.49794676 9.5668806e-09
  Force max component initial, final = 0.018671899 3.7445774e-10
  Final line search alpha, max atom move = 1.0000000 3.7445774e-10
  Iterations, force evaluations = 76 151

MPI task timing breakdown:
Section |  min time  |  avg time  |  max time  |%varavg| %total
---------------------------------------------------------------
Pair    | 0.15603    | 0.1752     | 0.2021     |   3.5 | 81.25
Neigh   | 0          | 0          | 0          |   0.0 |  0.00
Comm    | 0.0098553  | 0.036767   | 0.055948   |   7.5 | 17.05
Output  | 0          | 0          | 0          |   0.0 |  0.00
Modify  | 0.00021673 | 0.00025274 | 0.00029129 |   0.0 |  0.12
Other   |            | 0.0034     |            |       |  1.58

Nlocal:        400.000 ave         458 max         348 min
Histogram: 2 0 2 0 0 0 2 0 0 2
Nghost:        1740.00 ave        1792 max        1682 min
Histogram: 2 0 0 2 0 0 0 2 0 2
Neighs:        25750.0 ave       31937 max       20513 min
Histogram: 1 1 0 2 1 1 0 0 1 1

Total # of neighbors = 206000
Ave neighs/atom = 64.375000
Neighbor list builds = 0
Dangerous builds = 0

compute 	peratom all pe/atom
compute 	eatoms all reduce sum c_peratom
compute 	csym all centro/atom fcc
thermo 		10
thermo_style 	custom step temp pe c_eatoms pxx pyy pzz lx ly lz fnorm
#dump 		1 all custom 1 dump.relax.1.* id type xs ys zs c_peratom c_csym
run 0
Neighbor list info ...
  update every 1 steps, delay 10 steps, check yes
  max neighbors/atom: 2000, page size: 100000
  master list distance cutoff = 8.499539
  ghost atom cutoff = 8.499539
  binsize = 4.2497695, bins = 12 7 9
  2 neighbor lists, perpetual/occasional/extra = 1 1 0
  (1) pair eam/alloy, perpetual
      attributes: half, newton on
      pair build: half/bin/atomonly/newton
      stencil: half/bin/3d
      bin: standard
  (2) compute centro/atom, occasional
      attributes: full, newton on
      pair build: full/bin/atomonly
      stencil: full/bin/3d
      bin: standard
Per MPI rank memory allocation (min/avg/max) = 4.165 | 4.165 | 4.165 Mbytes
Step Temp PotEng c_eatoms Pxx Pyy Pzz Lx Ly Lz Fnorm 
      76            0   -10597.638   -10597.638   -5236.7201   -5236.7201 -0.00010048401     49.60217    28.637826     35.06788 9.5668807e-09 
Loop time of 3.11562e-06 on 8 procs for 0 steps with 3200 atoms

120.4% CPU use with 8 MPI tasks x no OpenMP threads

MPI task timing breakdown:
Section |  min time  |  avg time  |  max time  |%varavg| %total
---------------------------------------------------------------
Pair    | 0          | 0          | 0          |   0.0 |  0.00
Neigh   | 0          | 0          | 0          |   0.0 |  0.00
Comm    | 0          | 0          | 0          |   0.0 |  0.00
Output  | 0          | 0          | 0          |   0.0 |  0.00
Modify  | 0          | 0          | 0          |   0.0 |  0.00
Other   |            | 3.116e-06  |            |       |100.00

Nlocal:        400.000 ave         458 max         348 min
Histogram: 2 0 2 0 0 0 2 0 0 2
Nghost:        1740.00 ave        1792 max        1682 min
Histogram: 2 0 0 2 0 0 0 2 0 2
Neighs:        25750.0 ave       31930 max       20513 min
Histogram: 1 1 0 2 1 1 0 0 1 1
FullNghs:       0.00000 ave           0 max           0 min
Histogram: 8 0 0 0 0 0 0 0 0 0

Total # of neighbors = 206000
Ave neighs/atom = 64.375000
Neighbor list builds = 0
Dangerous builds = 0
#this command creates a model of the script before the displacement and minimization occur
variable 	E equal "c_eatoms"
variable 	Eo equal $E
variable 	Eo equal -10597.6382170702
#variable 	E equal "c_eatoms" computes the initial energy of the model before any sliding is done
#E is necessary to store the initial energy in Eo

group 		bot region 1
1600 atoms in group bot
group 		top region 2
1600 atoms in group top
group 		top2 region 3
1400 atoms in group top2

displace_atoms 	top move ${x_displace} 0.0 0.0 units box
displace_atoms 	top move -1.65340565062889 0.0 0.0 units box
Displacing atoms ...

#displace_atoms is the command neccessary to move atoms into the next stacking arrangement (ie: A -> B)

fix 		1 all setforce 0 0 NULL
min_style 	cg
minimize 	0.0 1e-8 20000 20000
WARNING: Using 'neigh_modify every 1 delay 0 check yes' setting during minimization (../min.cpp:188)
Per MPI rank memory allocation (min/avg/max) = 5.415 | 5.415 | 5.415 Mbytes
Step Temp PotEng c_eatoms Pxx Pyy Pzz Lx Ly Lz Fnorm 
      76            0   -10583.751   -10583.751   -5546.9015   -5546.9015    3136.7197     49.60217    28.637826     35.06788    1.4193364 
      80            0     -10584.4     -10584.4   -5301.8642   -5301.8642     4038.768     49.60217    28.637826     35.06788   0.51301061 
      90            0   -10584.738   -10584.738   -7201.6951   -7201.6951    277.26419     49.60217    28.637826     35.06788   0.02042181 
     100            0    -10584.74    -10584.74   -7325.7989   -7325.7989    29.175855     49.60217    28.637826     35.06788  0.003847173 
     110            0    -10584.74    -10584.74   -7339.0374   -7339.0374    3.0337294     49.60217    28.637826     35.06788 0.00031835567 
     120            0    -10584.74    -10584.74   -7340.4008   -7340.4008   0.31824035     49.60217    28.637826     35.06788 5.1076408e-05 
     130            0    -10584.74    -10584.74   -7340.5459   -7340.5459  0.034812821     49.60217    28.637826     35.06788 4.0413004e-06 
     140            0    -10584.74    -10584.74   -7340.5621   -7340.5621 0.0029904705     49.60217    28.637826     35.06788 3.6545225e-07 
     150            0    -10584.74    -10584.74   -7340.5635   -7340.5635 0.00023238335     49.60217    28.637826     35.06788 4.1156987e-08 
     157            0    -10584.74    -10584.74   -7340.5636   -7340.5636 3.0351483e-05     49.60217    28.637826     35.06788 6.2983689e-09 
Loop time of 0.229462 on 8 procs for 81 steps with 3200 atoms

99.2% CPU use with 8 MPI tasks x no OpenMP threads

Minimization stats:
  Stopping criterion = force tolerance
  Energy initial, next-to-last, final = 
     -10583.7513234678  -10584.7395644522  -10584.7395644533
  Force two-norm initial, final = 1.4193364 6.2983689e-09
  Force max component initial, final = 0.050745525 2.1576105e-10
  Final line search alpha, max atom move = 1.0000000 2.1576105e-10
  Iterations, force evaluations = 81 159

MPI task timing breakdown:
Section |  min time  |  avg time  |  max time  |%varavg| %total
---------------------------------------------------------------
Pair    | 0.16985    | 0.18906    | 0.2145     |   3.3 | 82.39
Neigh   | 0          | 0          | 0          |   0.0 |  0.00
Comm    | 0.010464   | 0.035906   | 0.055122   |   7.6 | 15.65
Output  | 0.00045248 | 0.00046001 | 0.00049381 |   0.0 |  0.20
Modify  | 0.00023142 | 0.00028332 | 0.00033587 |   0.0 |  0.12
Other   |            | 0.003752   |            |       |  1.64

Nlocal:        400.000 ave         458 max         348 min
Histogram: 2 0 2 0 0 0 2 0 0 2
Nghost:        1740.50 ave        1793 max        1683 min
Histogram: 2 0 0 2 0 0 0 2 0 2
Neighs:        26025.0 ave       32553 max       20561 min
Histogram: 2 0 0 2 1 1 0 0 1 1
FullNghs:       0.00000 ave           0 max           0 min
Histogram: 8 0 0 0 0 0 0 0 0 0

Total # of neighbors = 208200
Ave neighs/atom = 65.062500
Neighbor list builds = 0
Dangerous builds = 0

displace_atoms 	all random ${atomjiggle} ${atomjiggle} ${atomjiggle} 87287 units box
displace_atoms 	all random 1e-05 ${atomjiggle} ${atomjiggle} 87287 units box
displace_atoms 	all random 1e-05 1e-05 ${atomjiggle} 87287 units box
displace_atoms 	all random 1e-05 1e-05 1e-05 87287 units box
Displacing atoms ...
minimize 	0.0 1e-8 20000 20000
WARNING: Using 'neigh_modify every 1 delay 0 check yes' setting during minimization (../min.cpp:188)
Per MPI rank memory allocation (min/avg/max) = 5.415 | 5.415 | 5.415 Mbytes
Step Temp PotEng c_eatoms Pxx Pyy Pzz Lx Ly Lz Fnorm 
     157            0    -10584.74    -10584.74    -7312.584   -7312.5839 -0.019322306     49.60217    28.637826    35.202091 0.0015708012 
     160            0    -10584.74    -10584.74   -7312.5815   -7312.5814 -0.0097018779     49.60217    28.637826    35.202091 0.00011694468 
     170            0    -10584.74    -10584.74   -7312.5779   -7312.5778 -0.001284502     49.60217    28.637826    35.202091 3.6040244e-06 
     180            0    -10584.74    -10584.74   -7312.5775   -7312.5774 -0.00058753809     49.60217    28.637826    35.202091 5.9833131e-07 
     190            0    -10584.74    -10584.74   -7312.5772   -7312.5771 7.3732306e-06     49.60217    28.637826    35.202091 2.5768788e-07 
     200            0    -10584.74    -10584.74   -7312.5771    -7312.577 0.00012431108     49.60217    28.637826    35.202091 6.1811205e-08 
     209            0    -10584.74    -10584.74   -7312.5771   -7312.5771 6.0635448e-05     49.60217    28.637826    35.202091 9.8017786e-09 
Loop time of 0.141201 on 8 procs for 52 steps with 3200 atoms

98.8% CPU use with 8 MPI tasks x no OpenMP threads

Minimization stats:
  Stopping criterion = force tolerance
  Energy initial, next-to-last, final = 
     -10584.7395637701  -10584.7395640192  -10584.7395640192
  Force two-norm initial, final = 0.0015708012 9.8017786e-09
  Force max component initial, final = 8.4786363e-05 6.9158670e-10
  Final line search alpha, max atom move = 1.0000000 6.9158670e-10
  Iterations, force evaluations = 52 104

MPI task timing breakdown:
Section |  min time  |  avg time  |  max time  |%varavg| %total
---------------------------------------------------------------
Pair    | 0.11756    | 0.1252     | 0.13152    |   1.5 | 88.67
Neigh   | 0          | 0          | 0          |   0.0 |  0.00
Comm    | 0.006668   | 0.013134   | 0.020893   |   4.7 |  9.30
Output  | 0.00026856 | 0.00027341 | 0.00029598 |   0.0 |  0.19
Modify  | 0.00016777 | 0.00017724 | 0.00019128 |   0.0 |  0.13
Other   |            | 0.002415   |            |       |  1.71

Nlocal:        400.000 ave         408 max         392 min
Histogram: 1 1 0 1 0 1 2 1 0 1
Nghost:        1740.50 ave        1748 max        1732 min
Histogram: 1 0 0 2 1 1 1 0 0 2
Neighs:        26025.0 ave       28868 max       22958 min
Histogram: 2 1 1 0 0 0 0 0 1 3
FullNghs:       0.00000 ave           0 max           0 min
Histogram: 8 0 0 0 0 0 0 0 0 0

Total # of neighbors = 208200
Ave neighs/atom = 65.062500
Neighbor list builds = 0
Dangerous builds = 0

variable 	Ef equal "c_eatoms"
variable 	Efo equal $Ef
variable 	Efo equal -10584.7395640192f
variable	Cf equal 1.60217657e-16
variable 	A equal (${xdim}*${ydim})*1e-20
variable 	A equal (49.6021695188668*${ydim})*1e-20
variable 	A equal (49.6021695188668*28.6378259241072)*1e-20
variable 	SFE equal ((${Ef}-${Eo})*${Cf})/${A}
variable 	SFE equal ((-10584.7395640192-${Eo})*${Cf})/${A}
variable 	SFE equal ((-10584.7395640192--10597.6382170702)*${Cf})/${A}
variable 	SFE equal ((-10584.7395640192--10597.6382170702)*1.60217657e-16)/${A}
variable 	SFE equal ((-10584.7395640192--10597.6382170702)*1.60217657e-16)/1.42049829613936e-17
variable 	Efomj equal ${Ef}*${Cf}/${A}
variable 	Efomj equal -10584.7395640192*${Cf}/${A}
variable 	Efomj equal -10584.7395640192*1.60217657e-16/${A}
variable 	Efomj equal -10584.7395640192*1.60217657e-16/1.42049829613936e-17

####################################
print "Initial energy of atoms = ${Eo} eV"
Initial energy of atoms = -10597.6382170702 eV
print "Initial energy before twinning Efo = ${Ef} $Efomj" # in SFE in mJ/m^2"
Initial energy before twinning Efo = -10584.7395640192 -10584.7395640192fomj

#----------- for twin fault energy -----------------------
variable	Ndiscrt equal 30
variable    	i loop ${Ndiscrt}
variable    	i loop 30
label       	loop

variable 	xt_displace equal -1*(${latparam1}/sqrt(6)*${i}/${Ndiscrt})
variable 	xt_displace equal -1*(4.05000018187522/sqrt(6)*${i}/${Ndiscrt})
variable 	xt_displace equal -1*(4.05000018187522/sqrt(6)*3/${Ndiscrt})
variable 	xt_displace equal -1*(4.05000018187522/sqrt(6)*3/30)
variable 	Bxt_displace equal 1.0+${i}/${Ndiscrt}
variable 	Bxt_displace equal 1.0+3/${Ndiscrt}
variable 	Bxt_displace equal 1.0+3/30

displace_atoms 	top2 move ${xt_displace} 0.0 0.0 units box
displace_atoms 	top2 move -0.165340565062889 0.0 0.0 units box
Displacing atoms ...

fix 		1 all setforce 0 0 NULL
min_style 	cg
minimize 	0.0 1e-8 20000 20000
WARNING: Using 'neigh_modify every 1 delay 0 check yes' setting during minimization (../min.cpp:188)
Per MPI rank memory allocation (min/avg/max) = 5.415 | 5.415 | 5.415 Mbytes
Step Temp PotEng c_eatoms Pxx Pyy Pzz Lx Ly Lz Fnorm 
     209            0   -10583.712   -10583.712   -7322.6861   -7126.6503    115.53295     49.60217    28.637826    35.202089   0.30690175 
     210            0   -10583.719   -10583.719    -7309.974    -7133.641     118.6714     49.60217    28.637826    35.202089  0.093748303 
     220            0   -10583.721   -10583.721   -7357.1142   -7185.9205    33.515426     49.60217    28.637826    35.202089  0.015151227 
     230            0   -10583.721   -10583.721   -7374.0264   -7203.0505 -0.037298326     49.60217    28.637826    35.202089 1.2000121e-05 
     240            0   -10583.721   -10583.721   -7374.0097   -7203.0339 -0.00062514655     49.60217    28.637826    35.202089 5.4452863e-07 
     250            0   -10583.721   -10583.721   -7374.0094   -7203.0336 1.1503091e-05     49.60217    28.637826    35.202089 6.1495152e-08 
     260            0   -10583.721   -10583.721   -7374.0094   -7203.0336 3.3982591e-06     49.60217    28.637826    35.202089 2.0969528e-08 
     263            0   -10583.721   -10583.721   -7374.0094   -7203.0336  3.43238e-06     49.60217    28.637826    35.202089 9.6783009e-09 
Loop time of 0.14642 on 8 procs for 54 steps with 3200 atoms

99.9% CPU use with 8 MPI tasks x no OpenMP threads

Minimization stats:
  Stopping criterion = force tolerance
  Energy initial, next-to-last, final = 
     -10583.7122506341  -10583.7206664274  -10583.7206664274
  Force two-norm initial, final = 0.30690175 9.6783009e-09
  Force max component initial, final = 0.016205992 5.8308233e-10
  Final line search alpha, max atom move = 1.0000000 5.8308233e-10
  Iterations, force evaluations = 54 108

MPI task timing breakdown:
Section |  min time  |  avg time  |  max time  |%varavg| %total
---------------------------------------------------------------
Pair    | 0.11995    | 0.12891    | 0.13638    |   1.8 | 88.04
Neigh   | 0          | 0          | 0          |   0.0 |  0.00
Comm    | 0.0068377  | 0.014477   | 0.023611   |   5.4 |  9.89
Output  | 0.00032547 | 0.00033034 | 0.00035511 |   0.0 |  0.23
Modify  | 0.00017659 | 0.00018232 | 0.00019041 |   0.0 |  0.12
Other   |            | 0.002518   |            |       |  1.72

Nlocal:        400.000 ave         404 max         394 min
Histogram: 1 0 0 1 1 0 1 0 2 2
Nghost:        1740.50 ave        1747 max        1737 min
Histogram: 2 1 1 0 1 1 1 0 0 1
Neighs:        26100.0 ave       28877 max       23300 min
Histogram: 2 2 0 0 0 0 0 0 1 3
FullNghs:       0.00000 ave           0 max           0 min
Histogram: 8 0 0 0 0 0 0 0 0 0

Total # of neighbors = 208800
Ave neighs/atom = 65.250000
Neighbor list builds = 0
Dangerous builds = 0

variable 	Eftwn equal "c_eatoms"
variable 	Eftwnmj equal ${Eftwn}*${Cf}/${A}
variable 	Eftwnmj equal -10583.7206664274*${Cf}/${A}
variable 	Eftwnmj equal -10583.7206664274*1.60217657e-16/${A}
variable 	Eftwnmj equal -10583.7206664274*1.60217657e-16/1.42049829613936e-17
variable 	TFEf equal ${Eftwnmj}-${Efomj}
variable 	TFEf equal -119373.527735025-${Efomj}
variable 	TFEf equal -119373.527735025--119385.019856158

print 		"displacement and TFE = ${Bxt_displace} ${TFEf}" # in SFE in mJ/m^2"
displacement and TFE = 1.1 11.4921211330075

next 		i
jump		TFE_displacement1.lmpin
#####################################################################################################################
# Course: Theory, Modelling, and Simulation of Microstructures (TMS) - Summer semester 2021
# Tutors: Dr. Arun Prakash, Vimal Muthusamy
# Description: Input file for Twin Fault Energy (TFE) of your element
# Originally created by Richard Glaze, 2014. Modified by S. Roy, 2018
######################################################################################################################

# --------------------- INITIALIZAITION ---------------------


clear
units		metal
dimension	3
boundary	p p s
atom_style	atomic
variable 	latparam1 equal 4.05000018187522    ### provide the lattice constant from your calculation
variable 	x_displace equal -1*(${latparam1}/sqrt(6))
variable 	x_displace equal -1*(4.05000018187522/sqrt(6))
variable 	xdim equal ${latparam1}*sqrt(6)/2*10
variable 	xdim equal 4.05000018187522*sqrt(6)/2*10
variable 	ydim equal ${latparam1}*sqrt(2)/2*10
variable 	ydim equal 4.05000018187522*sqrt(2)/2*10
variable 	atomjiggle equal 1.0e-5
variable 	Bx_displace equal 1.0

# --------------------- ATOM DEFINITION ---------------------
lattice		fcc ${latparam1}
lattice		fcc 4.05000018187522
Lattice spacing in x,y,z = 4.0500002 4.0500002 4.0500002
region		1 block -.001 ${xdim} -.001 ${ydim} -.001 16.5 units box
region		1 block -.001 49.6021695188668 -.001 ${ydim} -.001 16.5 units box
region		1 block -.001 49.6021695188668 -.001 28.6378259241072 -.001 16.5 units box
region 		2 block -.001 ${xdim} -.001 ${ydim} 16.5 36.5808 units box
region 		2 block -.001 49.6021695188668 -.001 ${ydim} 16.5 36.5808 units box
region 		2 block -.001 49.6021695188668 -.001 28.6378259241072 16.5 36.5808 units box
region 		3 block -.001 ${xdim} -.001 ${ydim} 19.5 36.5808 units box
region 		3 block -.001 49.6021695188668 -.001 ${ydim} 19.5 36.5808 units box
region 		3 block -.001 49.6021695188668 -.001 28.6378259241072 19.5 36.5808 units box
region		whole block 0 ${xdim} 0 ${ydim} 0 36.5808 units box
region		whole block 0 49.6021695188668 0 ${ydim} 0 36.5808 units box
region		whole block 0 49.6021695188668 0 28.6378259241072 0 36.5808 units box
#the -.001 in the -x and -y and lower limit of region 1 are only to overcome a simple numerical issue but can be considered 0
create_box 	1 whole
Created orthogonal box = (0.0000000 0.0000000 0.0000000) to (49.602170 28.637826 36.580800)
  2 by 2 by 2 MPI processor grid
lattice 	fcc ${latparam1} orient x 1 1 2 orient y -1 1 0 orient z -1 -1 1
lattice 	fcc 4.05000018187522 orient x 1 1 2 orient y -1 1 0 orient z -1 -1 1
Lattice spacing in x,y,z = 6.6136226 5.7275652 7.0148061
create_atoms	1 region 1
Created 1600 atoms
  using lattice units in orthogonal box = (0.0000000 0.0000000 -0.0036580800) to (49.602170 28.637826 36.584458)
  create_atoms CPU = 0.000 seconds
lattice 	fcc ${latparam1} orient x 1 1 2 orient y -1 1 0 orient z -1 -1 1
lattice 	fcc 4.05000018187522 orient x 1 1 2 orient y -1 1 0 orient z -1 -1 1
Lattice spacing in x,y,z = 6.6136226 5.7275652 7.0148061
create_atoms 	1 region 2
Created 1600 atoms
  using lattice units in orthogonal box = (0.0000000 0.0000000 -0.0036580800) to (49.602170 28.637826 36.584458)
  create_atoms CPU = 0.000 seconds

# --------------------- FORCE FIELDS ---------------------
#Provide potential
pair_style      eam/alloy  ### TYPE OF POTENTIAL (eam (OR) eam/alloy)
pair_coeff      *  *  /home03/nm95xule/TMS_SS2022Nan/Mishin_updated-Al-Co-2013.eam.alloy Al  ### POTENTIAL FILENAME


# --------------------- SETTINGS ---------------------

fix 		1 all setforce 0 0 NULL
min_style 	cg
minimize 	0.0 1e-8 20000 20000
WARNING: Using 'neigh_modify every 1 delay 0 check yes' setting during minimization (../min.cpp:188)
Neighbor list info ...
  update every 1 steps, delay 0 steps, check yes
  max neighbors/atom: 2000, page size: 100000
  master list distance cutoff = 8.499539
  ghost atom cutoff = 8.499539
  binsize = 4.2497695, bins = 12 7 9
  1 neighbor lists, perpetual/occasional/extra = 1 0 0
  (1) pair eam/alloy, perpetual
      attributes: half, newton on
      pair build: half/bin/atomonly/newton
      stencil: half/bin/3d
      bin: standard
Per MPI rank memory allocation (min/avg/max) = 4.534 | 4.534 | 4.534 Mbytes
Step Temp E_pair E_mol TotEng Press Volume 
       0            0   -10597.615            0   -10597.615   -3789.6192    49832.993 
      76            0   -10597.638            0   -10597.638   -3489.8067    49832.993 
Loop time of 0.211608 on 8 procs for 76 steps with 3200 atoms

98.7% CPU use with 8 MPI tasks x no OpenMP threads

Minimization stats:
  Stopping criterion = force tolerance
  Energy initial, next-to-last, final = 
      -10597.614794843  -10597.6382170703  -10597.6382170699
  Force two-norm initial, final = 0.49794676 9.5668806e-09
  Force max component initial, final = 0.018671899 3.7445774e-10
  Final line search alpha, max atom move = 1.0000000 3.7445774e-10
  Iterations, force evaluations = 76 151

MPI task timing breakdown:
Section |  min time  |  avg time  |  max time  |%varavg| %total
---------------------------------------------------------------
Pair    | 0.15297    | 0.17322    | 0.19816    |   3.5 | 81.86
Neigh   | 0          | 0          | 0          |   0.0 |  0.00
Comm    | 0.0097254  | 0.034718   | 0.055012   |   7.8 | 16.41
Output  | 0          | 0          | 0          |   0.0 |  0.00
Modify  | 0.00021691 | 0.00025262 | 0.00029728 |   0.0 |  0.12
Other   |            | 0.003418   |            |       |  1.62

Nlocal:        400.000 ave         458 max         348 min
Histogram: 2 0 2 0 0 0 2 0 0 2
Nghost:        1740.00 ave        1792 max        1682 min
Histogram: 2 0 0 2 0 0 0 2 0 2
Neighs:        25750.0 ave       31937 max       20513 min
Histogram: 1 1 0 2 1 1 0 0 1 1

Total # of neighbors = 206000
Ave neighs/atom = 64.375000
Neighbor list builds = 0
Dangerous builds = 0

compute 	peratom all pe/atom
compute 	eatoms all reduce sum c_peratom
compute 	csym all centro/atom fcc
thermo 		10
thermo_style 	custom step temp pe c_eatoms pxx pyy pzz lx ly lz fnorm
#dump 		1 all custom 1 dump.relax.1.* id type xs ys zs c_peratom c_csym
run 0
Neighbor list info ...
  update every 1 steps, delay 10 steps, check yes
  max neighbors/atom: 2000, page size: 100000
  master list distance cutoff = 8.499539
  ghost atom cutoff = 8.499539
  binsize = 4.2497695, bins = 12 7 9
  2 neighbor lists, perpetual/occasional/extra = 1 1 0
  (1) pair eam/alloy, perpetual
      attributes: half, newton on
      pair build: half/bin/atomonly/newton
      stencil: half/bin/3d
      bin: standard
  (2) compute centro/atom, occasional
      attributes: full, newton on
      pair build: full/bin/atomonly
      stencil: full/bin/3d
      bin: standard
Per MPI rank memory allocation (min/avg/max) = 4.165 | 4.165 | 4.165 Mbytes
Step Temp PotEng c_eatoms Pxx Pyy Pzz Lx Ly Lz Fnorm 
      76            0   -10597.638   -10597.638   -5236.7201   -5236.7201 -0.00010048401     49.60217    28.637826     35.06788 9.5668807e-09 
Loop time of 3.19475e-06 on 8 procs for 0 steps with 3200 atoms

105.6% CPU use with 8 MPI tasks x no OpenMP threads

MPI task timing breakdown:
Section |  min time  |  avg time  |  max time  |%varavg| %total
---------------------------------------------------------------
Pair    | 0          | 0          | 0          |   0.0 |  0.00
Neigh   | 0          | 0          | 0          |   0.0 |  0.00
Comm    | 0          | 0          | 0          |   0.0 |  0.00
Output  | 0          | 0          | 0          |   0.0 |  0.00
Modify  | 0          | 0          | 0          |   0.0 |  0.00
Other   |            | 3.195e-06  |            |       |100.00

Nlocal:        400.000 ave         458 max         348 min
Histogram: 2 0 2 0 0 0 2 0 0 2
Nghost:        1740.00 ave        1792 max        1682 min
Histogram: 2 0 0 2 0 0 0 2 0 2
Neighs:        25750.0 ave       31930 max       20513 min
Histogram: 1 1 0 2 1 1 0 0 1 1
FullNghs:       0.00000 ave           0 max           0 min
Histogram: 8 0 0 0 0 0 0 0 0 0

Total # of neighbors = 206000
Ave neighs/atom = 64.375000
Neighbor list builds = 0
Dangerous builds = 0
#this command creates a model of the script before the displacement and minimization occur
variable 	E equal "c_eatoms"
variable 	Eo equal $E
variable 	Eo equal -10597.6382170702
#variable 	E equal "c_eatoms" computes the initial energy of the model before any sliding is done
#E is necessary to store the initial energy in Eo

group 		bot region 1
1600 atoms in group bot
group 		top region 2
1600 atoms in group top
group 		top2 region 3
1400 atoms in group top2

displace_atoms 	top move ${x_displace} 0.0 0.0 units box
displace_atoms 	top move -1.65340565062889 0.0 0.0 units box
Displacing atoms ...

#displace_atoms is the command neccessary to move atoms into the next stacking arrangement (ie: A -> B)

fix 		1 all setforce 0 0 NULL
min_style 	cg
minimize 	0.0 1e-8 20000 20000
WARNING: Using 'neigh_modify every 1 delay 0 check yes' setting during minimization (../min.cpp:188)
Per MPI rank memory allocation (min/avg/max) = 5.415 | 5.415 | 5.415 Mbytes
Step Temp PotEng c_eatoms Pxx Pyy Pzz Lx Ly Lz Fnorm 
      76            0   -10583.751   -10583.751   -5546.9015   -5546.9015    3136.7197     49.60217    28.637826     35.06788    1.4193364 
      80            0     -10584.4     -10584.4   -5301.8642   -5301.8642     4038.768     49.60217    28.637826     35.06788   0.51301061 
      90            0   -10584.738   -10584.738   -7201.6951   -7201.6951    277.26419     49.60217    28.637826     35.06788   0.02042181 
     100            0    -10584.74    -10584.74   -7325.7989   -7325.7989    29.175855     49.60217    28.637826     35.06788  0.003847173 
     110            0    -10584.74    -10584.74   -7339.0374   -7339.0374    3.0337294     49.60217    28.637826     35.06788 0.00031835567 
     120            0    -10584.74    -10584.74   -7340.4008   -7340.4008   0.31824035     49.60217    28.637826     35.06788 5.1076408e-05 
     130            0    -10584.74    -10584.74   -7340.5459   -7340.5459  0.034812821     49.60217    28.637826     35.06788 4.0413004e-06 
     140            0    -10584.74    -10584.74   -7340.5621   -7340.5621 0.0029904705     49.60217    28.637826     35.06788 3.6545225e-07 
     150            0    -10584.74    -10584.74   -7340.5635   -7340.5635 0.00023238335     49.60217    28.637826     35.06788 4.1156987e-08 
     157            0    -10584.74    -10584.74   -7340.5636   -7340.5636 3.0351483e-05     49.60217    28.637826     35.06788 6.2983689e-09 
Loop time of 0.226307 on 8 procs for 81 steps with 3200 atoms

99.0% CPU use with 8 MPI tasks x no OpenMP threads

Minimization stats:
  Stopping criterion = force tolerance
  Energy initial, next-to-last, final = 
     -10583.7513234678  -10584.7395644522  -10584.7395644533
  Force two-norm initial, final = 1.4193364 6.2983689e-09
  Force max component initial, final = 0.050745525 2.1576105e-10
  Final line search alpha, max atom move = 1.0000000 2.1576105e-10
  Iterations, force evaluations = 81 159

MPI task timing breakdown:
Section |  min time  |  avg time  |  max time  |%varavg| %total
---------------------------------------------------------------
Pair    | 0.16656    | 0.18702    | 0.21144    |   3.4 | 82.64
Neigh   | 0          | 0          | 0          |   0.0 |  0.00
Comm    | 0.01033    | 0.034801   | 0.055314   |   8.0 | 15.38
Output  | 0.00042978 | 0.00043789 | 0.00047034 |   0.0 |  0.19
Modify  | 0.00023135 | 0.00026793 | 0.00030896 |   0.0 |  0.12
Other   |            | 0.003781   |            |       |  1.67

Nlocal:        400.000 ave         458 max         348 min
Histogram: 2 0 2 0 0 0 2 0 0 2
Nghost:        1740.50 ave        1793 max        1683 min
Histogram: 2 0 0 2 0 0 0 2 0 2
Neighs:        26025.0 ave       32553 max       20561 min
Histogram: 2 0 0 2 1 1 0 0 1 1
FullNghs:       0.00000 ave           0 max           0 min
Histogram: 8 0 0 0 0 0 0 0 0 0

Total # of neighbors = 208200
Ave neighs/atom = 65.062500
Neighbor list builds = 0
Dangerous builds = 0

displace_atoms 	all random ${atomjiggle} ${atomjiggle} ${atomjiggle} 87287 units box
displace_atoms 	all random 1e-05 ${atomjiggle} ${atomjiggle} 87287 units box
displace_atoms 	all random 1e-05 1e-05 ${atomjiggle} 87287 units box
displace_atoms 	all random 1e-05 1e-05 1e-05 87287 units box
Displacing atoms ...
minimize 	0.0 1e-8 20000 20000
WARNING: Using 'neigh_modify every 1 delay 0 check yes' setting during minimization (../min.cpp:188)
Per MPI rank memory allocation (min/avg/max) = 5.415 | 5.415 | 5.415 Mbytes
Step Temp PotEng c_eatoms Pxx Pyy Pzz Lx Ly Lz Fnorm 
     157            0    -10584.74    -10584.74    -7312.584   -7312.5839 -0.019322306     49.60217    28.637826    35.202091 0.0015708012 
     160            0    -10584.74    -10584.74   -7312.5815   -7312.5814 -0.0097018779     49.60217    28.637826    35.202091 0.00011694468 
     170            0    -10584.74    -10584.74   -7312.5779   -7312.5778 -0.001284502     49.60217    28.637826    35.202091 3.6040244e-06 
     180            0    -10584.74    -10584.74   -7312.5775   -7312.5774 -0.00058753809     49.60217    28.637826    35.202091 5.9833131e-07 
     190            0    -10584.74    -10584.74   -7312.5772   -7312.5771 7.3732306e-06     49.60217    28.637826    35.202091 2.5768788e-07 
     200            0    -10584.74    -10584.74   -7312.5771    -7312.577 0.00012431108     49.60217    28.637826    35.202091 6.1811205e-08 
     209            0    -10584.74    -10584.74   -7312.5771   -7312.5771 6.0635448e-05     49.60217    28.637826    35.202091 9.8017786e-09 
Loop time of 0.141662 on 8 procs for 52 steps with 3200 atoms

98.9% CPU use with 8 MPI tasks x no OpenMP threads

Minimization stats:
  Stopping criterion = force tolerance
  Energy initial, next-to-last, final = 
     -10584.7395637701  -10584.7395640192  -10584.7395640192
  Force two-norm initial, final = 0.0015708012 9.8017786e-09
  Force max component initial, final = 8.4786363e-05 6.9158670e-10
  Final line search alpha, max atom move = 1.0000000 6.9158670e-10
  Iterations, force evaluations = 52 104

MPI task timing breakdown:
Section |  min time  |  avg time  |  max time  |%varavg| %total
---------------------------------------------------------------
Pair    | 0.11607    | 0.12364    | 0.13208    |   1.7 | 87.28
Neigh   | 0          | 0          | 0          |   0.0 |  0.00
Comm    | 0.0064984  | 0.015109   | 0.022828   |   5.1 | 10.67
Output  | 0.00026968 | 0.00027599 | 0.00029527 |   0.0 |  0.19
Modify  | 0.00016919 | 0.00017551 | 0.00018463 |   0.0 |  0.12
Other   |            | 0.002464   |            |       |  1.74

Nlocal:        400.000 ave         408 max         392 min
Histogram: 1 1 0 1 0 1 2 1 0 1
Nghost:        1740.50 ave        1748 max        1732 min
Histogram: 1 0 0 2 1 1 1 0 0 2
Neighs:        26025.0 ave       28868 max       22958 min
Histogram: 2 1 1 0 0 0 0 0 1 3
FullNghs:       0.00000 ave           0 max           0 min
Histogram: 8 0 0 0 0 0 0 0 0 0

Total # of neighbors = 208200
Ave neighs/atom = 65.062500
Neighbor list builds = 0
Dangerous builds = 0

variable 	Ef equal "c_eatoms"
variable 	Efo equal $Ef
variable 	Efo equal -10584.7395640192f
variable	Cf equal 1.60217657e-16
variable 	A equal (${xdim}*${ydim})*1e-20
variable 	A equal (49.6021695188668*${ydim})*1e-20
variable 	A equal (49.6021695188668*28.6378259241072)*1e-20
variable 	SFE equal ((${Ef}-${Eo})*${Cf})/${A}
variable 	SFE equal ((-10584.7395640192-${Eo})*${Cf})/${A}
variable 	SFE equal ((-10584.7395640192--10597.6382170702)*${Cf})/${A}
variable 	SFE equal ((-10584.7395640192--10597.6382170702)*1.60217657e-16)/${A}
variable 	SFE equal ((-10584.7395640192--10597.6382170702)*1.60217657e-16)/1.42049829613936e-17
variable 	Efomj equal ${Ef}*${Cf}/${A}
variable 	Efomj equal -10584.7395640192*${Cf}/${A}
variable 	Efomj equal -10584.7395640192*1.60217657e-16/${A}
variable 	Efomj equal -10584.7395640192*1.60217657e-16/1.42049829613936e-17

####################################
print "Initial energy of atoms = ${Eo} eV"
Initial energy of atoms = -10597.6382170702 eV
print "Initial energy before twinning Efo = ${Ef} $Efomj" # in SFE in mJ/m^2"
Initial energy before twinning Efo = -10584.7395640192 -10584.7395640192fomj

#----------- for twin fault energy -----------------------
variable	Ndiscrt equal 30
variable    	i loop ${Ndiscrt}
variable    	i loop 30
label       	loop

variable 	xt_displace equal -1*(${latparam1}/sqrt(6)*${i}/${Ndiscrt})
variable 	xt_displace equal -1*(4.05000018187522/sqrt(6)*${i}/${Ndiscrt})
variable 	xt_displace equal -1*(4.05000018187522/sqrt(6)*4/${Ndiscrt})
variable 	xt_displace equal -1*(4.05000018187522/sqrt(6)*4/30)
variable 	Bxt_displace equal 1.0+${i}/${Ndiscrt}
variable 	Bxt_displace equal 1.0+4/${Ndiscrt}
variable 	Bxt_displace equal 1.0+4/30

displace_atoms 	top2 move ${xt_displace} 0.0 0.0 units box
displace_atoms 	top2 move -0.220454086750519 0.0 0.0 units box
Displacing atoms ...

fix 		1 all setforce 0 0 NULL
min_style 	cg
minimize 	0.0 1e-8 20000 20000
WARNING: Using 'neigh_modify every 1 delay 0 check yes' setting during minimization (../min.cpp:188)
Per MPI rank memory allocation (min/avg/max) = 5.415 | 5.415 | 5.415 Mbytes
Step Temp PotEng c_eatoms Pxx Pyy Pzz Lx Ly Lz Fnorm 
     209            0   -10583.034   -10583.034   -7334.2637   -7043.7361    157.82494     49.60217    28.637826    35.202089   0.48243449 
     210            0    -10583.05    -10583.05   -7303.6027   -7058.0601    165.81526     49.60217    28.637826    35.202089   0.14460206 
     220            0   -10583.054   -10583.054   -7363.6294   -7130.2372    51.809273     49.60217    28.637826    35.202089  0.022310915 
     230            0   -10583.055   -10583.055   -7389.5209   -7156.6343 -0.085015385     49.60217    28.637826    35.202089 2.3151797e-05 
     240            0   -10583.055   -10583.055   -7389.4829   -7156.5967 -0.0028278707     49.60217    28.637826    35.202089 1.8448433e-06 
     250            0   -10583.055   -10583.055   -7389.4817   -7156.5953 -4.6318256e-07     49.60217    28.637826    35.202089 9.7916748e-08 
     260            0   -10583.055   -10583.055   -7389.4817   -7156.5953 -9.2945945e-06     49.60217    28.637826    35.202089 2.7300576e-08 
     267            0   -10583.055   -10583.055   -7389.4817   -7156.5953 -4.0549047e-06     49.60217    28.637826    35.202089 7.5486128e-09 
Loop time of 0.157749 on 8 procs for 58 steps with 3200 atoms

98.6% CPU use with 8 MPI tasks x no OpenMP threads

Minimization stats:
  Stopping criterion = force tolerance
  Energy initial, next-to-last, final = 
[...]
variable 	ydim equal ${latparam1}*sqrt(2)/2*10
variable 	ydim equal 4.05000018187522*sqrt(2)/2*10
variable 	atomjiggle equal 1.0e-5
variable 	Bx_displace equal 1.0

# --------------------- ATOM DEFINITION ---------------------
lattice		fcc ${latparam1}
lattice		fcc 4.05000018187522
Lattice spacing in x,y,z = 4.0500002 4.0500002 4.0500002
region		1 block -.001 ${xdim} -.001 ${ydim} -.001 16.5 units box
region		1 block -.001 49.6021695188668 -.001 ${ydim} -.001 16.5 units box
region		1 block -.001 49.6021695188668 -.001 28.6378259241072 -.001 16.5 units box
region 		2 block -.001 ${xdim} -.001 ${ydim} 16.5 36.5808 units box
region 		2 block -.001 49.6021695188668 -.001 ${ydim} 16.5 36.5808 units box
region 		2 block -.001 49.6021695188668 -.001 28.6378259241072 16.5 36.5808 units box
region 		3 block -.001 ${xdim} -.001 ${ydim} 19.5 36.5808 units box
region 		3 block -.001 49.6021695188668 -.001 ${ydim} 19.5 36.5808 units box
region 		3 block -.001 49.6021695188668 -.001 28.6378259241072 19.5 36.5808 units box
region		whole block 0 ${xdim} 0 ${ydim} 0 36.5808 units box
region		whole block 0 49.6021695188668 0 ${ydim} 0 36.5808 units box
region		whole block 0 49.6021695188668 0 28.6378259241072 0 36.5808 units box
#the -.001 in the -x and -y and lower limit of region 1 are only to overcome a simple numerical issue but can be considered 0
create_box 	1 whole
Created orthogonal box = (0.0000000 0.0000000 0.0000000) to (49.602170 28.637826 36.580800)
  2 by 2 by 2 MPI processor grid
lattice 	fcc ${latparam1} orient x 1 1 2 orient y -1 1 0 orient z -1 -1 1
lattice 	fcc 4.05000018187522 orient x 1 1 2 orient y -1 1 0 orient z -1 -1 1
Lattice spacing in x,y,z = 6.6136226 5.7275652 7.0148061
create_atoms	1 region 1
Created 1600 atoms
  using lattice units in orthogonal box = (0.0000000 0.0000000 -0.0036580800) to (49.602170 28.637826 36.584458)
  create_atoms CPU = 0.000 seconds
lattice 	fcc ${latparam1} orient x 1 1 2 orient y -1 1 0 orient z -1 -1 1
lattice 	fcc 4.05000018187522 orient x 1 1 2 orient y -1 1 0 orient z -1 -1 1
Lattice spacing in x,y,z = 6.6136226 5.7275652 7.0148061
create_atoms 	1 region 2
Created 1600 atoms
  using lattice units in orthogonal box = (0.0000000 0.0000000 -0.0036580800) to (49.602170 28.637826 36.584458)
  create_atoms CPU = 0.000 seconds

# --------------------- FORCE FIELDS ---------------------
#Provide potential
pair_style      eam/alloy  ### TYPE OF POTENTIAL (eam (OR) eam/alloy)
pair_coeff      *  *  /home03/nm95xule/TMS_SS2022Nan/Mishin_updated-Al-Co-2013.eam.alloy Al  ### POTENTIAL FILENAME


# --------------------- SETTINGS ---------------------

fix 		1 all setforce 0 0 NULL
min_style 	cg
minimize 	0.0 1e-8 20000 20000
Neighbor list info ...
  update every 1 steps, delay 0 steps, check yes
  max neighbors/atom: 2000, page size: 100000
  master list distance cutoff = 8.499539
  ghost atom cutoff = 8.499539
  binsize = 4.2497695, bins = 12 7 9
  1 neighbor lists, perpetual/occasional/extra = 1 0 0
  (1) pair eam/alloy, perpetual
      attributes: half, newton on
      pair build: half/bin/atomonly/newton
      stencil: half/bin/3d
      bin: standard
Per MPI rank memory allocation (min/avg/max) = 4.534 | 4.534 | 4.534 Mbytes
Step Temp E_pair E_mol TotEng Press Volume 
WARNING: Too many warnings: 117 vs 100. All future warnings will be suppressed (../thermo.cpp:422)
       0            0   -10597.615            0   -10597.615   -3789.6192    49832.993 
      76            0   -10597.638            0   -10597.638   -3489.8067    49832.993 
Loop time of 0.211306 on 8 procs for 76 steps with 3200 atoms

97.6% CPU use with 8 MPI tasks x no OpenMP threads

Minimization stats:
  Stopping criterion = force tolerance
  Energy initial, next-to-last, final = 
      -10597.614794843  -10597.6382170703  -10597.6382170699
  Force two-norm initial, final = 0.49794676 9.5668806e-09
  Force max component initial, final = 0.018671899 3.7445774e-10
  Final line search alpha, max atom move = 1.0000000 3.7445774e-10
  Iterations, force evaluations = 76 151

MPI task timing breakdown:
Section |  min time  |  avg time  |  max time  |%varavg| %total
---------------------------------------------------------------
Pair    | 0.15171    | 0.17416    | 0.19801    |   3.6 | 82.42
Neigh   | 0          | 0          | 0          |   0.0 |  0.00
Comm    | 0.0096804  | 0.033532   | 0.055993   |   8.3 | 15.87
Output  | 0          | 0          | 0          |   0.0 |  0.00
Modify  | 0.00021862 | 0.00025818 | 0.00029976 |   0.0 |  0.12
Other   |            | 0.003354   |            |       |  1.59

Nlocal:        400.000 ave         458 max         348 min
Histogram: 2 0 2 0 0 0 2 0 0 2
Nghost:        1740.00 ave        1792 max        1682 min
Histogram: 2 0 0 2 0 0 0 2 0 2
Neighs:        25750.0 ave       31937 max       20513 min
Histogram: 1 1 0 2 1 1 0 0 1 1

Total # of neighbors = 206000
Ave neighs/atom = 64.375000
Neighbor list builds = 0
Dangerous builds = 0

compute 	peratom all pe/atom
compute 	eatoms all reduce sum c_peratom
compute 	csym all centro/atom fcc
thermo 		10
thermo_style 	custom step temp pe c_eatoms pxx pyy pzz lx ly lz fnorm
#dump 		1 all custom 1 dump.relax.1.* id type xs ys zs c_peratom c_csym
run 0
Neighbor list info ...
  update every 1 steps, delay 10 steps, check yes
  max neighbors/atom: 2000, page size: 100000
  master list distance cutoff = 8.499539
  ghost atom cutoff = 8.499539
  binsize = 4.2497695, bins = 12 7 9
  2 neighbor lists, perpetual/occasional/extra = 1 1 0
  (1) pair eam/alloy, perpetual
      attributes: half, newton on
      pair build: half/bin/atomonly/newton
      stencil: half/bin/3d
      bin: standard
  (2) compute centro/atom, occasional
      attributes: full, newton on
      pair build: full/bin/atomonly
      stencil: full/bin/3d
      bin: standard
Per MPI rank memory allocation (min/avg/max) = 4.165 | 4.165 | 4.165 Mbytes
Step Temp PotEng c_eatoms Pxx Pyy Pzz Lx Ly Lz Fnorm 
WARNING: Too many warnings: 117 vs 100. All future warnings will be suppressed (../thermo.cpp:422)
      76            0   -10597.638   -10597.638   -5236.7201   -5236.7201 -0.00010048401     49.60217    28.637826     35.06788 9.5668807e-09 
Loop time of 2.952e-06 on 8 procs for 0 steps with 3200 atoms

127.0% CPU use with 8 MPI tasks x no OpenMP threads

MPI task timing breakdown:
Section |  min time  |  avg time  |  max time  |%varavg| %total
---------------------------------------------------------------
Pair    | 0          | 0          | 0          |   0.0 |  0.00
Neigh   | 0          | 0          | 0          |   0.0 |  0.00
Comm    | 0          | 0          | 0          |   0.0 |  0.00
Output  | 0          | 0          | 0          |   0.0 |  0.00
Modify  | 0          | 0          | 0          |   0.0 |  0.00
Other   |            | 2.952e-06  |            |       |100.00

Nlocal:        400.000 ave         458 max         348 min
Histogram: 2 0 2 0 0 0 2 0 0 2
Nghost:        1740.00 ave        1792 max        1682 min
Histogram: 2 0 0 2 0 0 0 2 0 2
Neighs:        25750.0 ave       31930 max       20513 min
Histogram: 1 1 0 2 1 1 0 0 1 1
FullNghs:       0.00000 ave           0 max           0 min
Histogram: 8 0 0 0 0 0 0 0 0 0

Total # of neighbors = 206000
Ave neighs/atom = 64.375000
Neighbor list builds = 0
Dangerous builds = 0
#this command creates a model of the script before the displacement and minimization occur
variable 	E equal "c_eatoms"
variable 	Eo equal $E
variable 	Eo equal -10597.6382170702
#variable 	E equal "c_eatoms" computes the initial energy of the model before any sliding is done
#E is necessary to store the initial energy in Eo

group 		bot region 1
1600 atoms in group bot
group 		top region 2
1600 atoms in group top
group 		top2 region 3
1400 atoms in group top2

displace_atoms 	top move ${x_displace} 0.0 0.0 units box
displace_atoms 	top move -1.65340565062889 0.0 0.0 units box
Displacing atoms ...

#displace_atoms is the command neccessary to move atoms into the next stacking arrangement (ie: A -> B)

fix 		1 all setforce 0 0 NULL
min_style 	cg
minimize 	0.0 1e-8 20000 20000
Per MPI rank memory allocation (min/avg/max) = 5.415 | 5.415 | 5.415 Mbytes
Step Temp PotEng c_eatoms Pxx Pyy Pzz Lx Ly Lz Fnorm 
      76            0   -10583.751   -10583.751   -5546.9015   -5546.9015    3136.7197     49.60217    28.637826     35.06788    1.4193364 
      80            0     -10584.4     -10584.4   -5301.8642   -5301.8642     4038.768     49.60217    28.637826     35.06788   0.51301061 
      90            0   -10584.738   -10584.738   -7201.6951   -7201.6951    277.26419     49.60217    28.637826     35.06788   0.02042181 
     100            0    -10584.74    -10584.74   -7325.7989   -7325.7989    29.175855     49.60217    28.637826     35.06788  0.003847173 
     110            0    -10584.74    -10584.74   -7339.0374   -7339.0374    3.0337294     49.60217    28.637826     35.06788 0.00031835567 
     120            0    -10584.74    -10584.74   -7340.4008   -7340.4008   0.31824035     49.60217    28.637826     35.06788 5.1076408e-05 
     130            0    -10584.74    -10584.74   -7340.5459   -7340.5459  0.034812821     49.60217    28.637826     35.06788 4.0413004e-06 
     140            0    -10584.74    -10584.74   -7340.5621   -7340.5621 0.0029904705     49.60217    28.637826     35.06788 3.6545225e-07 
     150            0    -10584.74    -10584.74   -7340.5635   -7340.5635 0.00023238335     49.60217    28.637826     35.06788 4.1156987e-08 
     157            0    -10584.74    -10584.74   -7340.5636   -7340.5636 3.0351483e-05     49.60217    28.637826     35.06788 6.2983689e-09 
Loop time of 0.226076 on 8 procs for 81 steps with 3200 atoms

98.8% CPU use with 8 MPI tasks x no OpenMP threads

Minimization stats:
  Stopping criterion = force tolerance
  Energy initial, next-to-last, final = 
     -10583.7513234678  -10584.7395644522  -10584.7395644533
  Force two-norm initial, final = 1.4193364 6.2983689e-09
  Force max component initial, final = 0.050745525 2.1576105e-10
  Final line search alpha, max atom move = 1.0000000 2.1576105e-10
  Iterations, force evaluations = 81 159

MPI task timing breakdown:
Section |  min time  |  avg time  |  max time  |%varavg| %total
---------------------------------------------------------------
Pair    | 0.16671    | 0.18865    | 0.21117    |   3.4 | 83.44
Neigh   | 0          | 0          | 0          |   0.0 |  0.00
Comm    | 0.010328   | 0.032886   | 0.054833   |   8.1 | 14.55
Output  | 0.00043081 | 0.00043935 | 0.00047247 |   0.0 |  0.19
Modify  | 0.00023261 | 0.0002693  | 0.00031299 |   0.0 |  0.12
Other   |            | 0.003834   |            |       |  1.70

Nlocal:        400.000 ave         458 max         348 min
Histogram: 2 0 2 0 0 0 2 0 0 2
Nghost:        1740.50 ave        1793 max        1683 min
Histogram: 2 0 0 2 0 0 0 2 0 2
Neighs:        26025.0 ave       32553 max       20561 min
Histogram: 2 0 0 2 1 1 0 0 1 1
FullNghs:       0.00000 ave           0 max           0 min
Histogram: 8 0 0 0 0 0 0 0 0 0

Total # of neighbors = 208200
Ave neighs/atom = 65.062500
Neighbor list builds = 0
Dangerous builds = 0

displace_atoms 	all random ${atomjiggle} ${atomjiggle} ${atomjiggle} 87287 units box
displace_atoms 	all random 1e-05 ${atomjiggle} ${atomjiggle} 87287 units box
displace_atoms 	all random 1e-05 1e-05 ${atomjiggle} 87287 units box
displace_atoms 	all random 1e-05 1e-05 1e-05 87287 units box
Displacing atoms ...
minimize 	0.0 1e-8 20000 20000
Per MPI rank memory allocation (min/avg/max) = 5.415 | 5.415 | 5.415 Mbytes
Step Temp PotEng c_eatoms Pxx Pyy Pzz Lx Ly Lz Fnorm 
     157            0    -10584.74    -10584.74    -7312.584   -7312.5839 -0.019322306     49.60217    28.637826    35.202091 0.0015708012 
     160            0    -10584.74    -10584.74   -7312.5815   -7312.5814 -0.0097018779     49.60217    28.637826    35.202091 0.00011694468 
     170            0    -10584.74    -10584.74   -7312.5779   -7312.5778 -0.001284502     49.60217    28.637826    35.202091 3.6040244e-06 
     180            0    -10584.74    -10584.74   -7312.5775   -7312.5774 -0.00058753809     49.60217    28.637826    35.202091 5.9833131e-07 
     190            0    -10584.74    -10584.74   -7312.5772   -7312.5771 7.3732306e-06     49.60217    28.637826    35.202091 2.5768788e-07 
     200            0    -10584.74    -10584.74   -7312.5771    -7312.577 0.00012431108     49.60217    28.637826    35.202091 6.1811205e-08 
     209            0    -10584.74    -10584.74   -7312.5771   -7312.5771 6.0635448e-05     49.60217    28.637826    35.202091 9.8017786e-09 
Loop time of 0.141605 on 8 procs for 52 steps with 3200 atoms

99.2% CPU use with 8 MPI tasks x no OpenMP threads

Minimization stats:
  Stopping criterion = force tolerance
  Energy initial, next-to-last, final = 
     -10584.7395637701  -10584.7395640192  -10584.7395640192
  Force two-norm initial, final = 0.0015708012 9.8017786e-09
  Force max component initial, final = 8.4786363e-05 6.9158670e-10
  Final line search alpha, max atom move = 1.0000000 6.9158670e-10
  Iterations, force evaluations = 52 104

MPI task timing breakdown:
Section |  min time  |  avg time  |  max time  |%varavg| %total
---------------------------------------------------------------
Pair    | 0.11686    | 0.12453    | 0.13195    |   1.6 | 87.95
Neigh   | 0          | 0          | 0          |   0.0 |  0.00
Comm    | 0.0066011  | 0.014178   | 0.022029   |   4.8 | 10.01
Output  | 0.00026417 | 0.0002696  | 0.00028974 |   0.0 |  0.19
Modify  | 0.00017035 | 0.00017523 | 0.00018481 |   0.0 |  0.12
Other   |            | 0.002448   |            |       |  1.73

Nlocal:        400.000 ave         408 max         392 min
Histogram: 1 1 0 1 0 1 2 1 0 1
Nghost:        1740.50 ave        1748 max        1732 min
Histogram: 1 0 0 2 1 1 1 0 0 2
Neighs:        26025.0 ave       28868 max       22958 min
Histogram: 2 1 1 0 0 0 0 0 1 3
FullNghs:       0.00000 ave           0 max           0 min
Histogram: 8 0 0 0 0 0 0 0 0 0

Total # of neighbors = 208200
Ave neighs/atom = 65.062500
Neighbor list builds = 0
Dangerous builds = 0

variable 	Ef equal "c_eatoms"
variable 	Efo equal $Ef
variable 	Efo equal -10584.7395640192f
variable	Cf equal 1.60217657e-16
variable 	A equal (${xdim}*${ydim})*1e-20
variable 	A equal (49.6021695188668*${ydim})*1e-20
variable 	A equal (49.6021695188668*28.6378259241072)*1e-20
variable 	SFE equal ((${Ef}-${Eo})*${Cf})/${A}
variable 	SFE equal ((-10584.7395640192-${Eo})*${Cf})/${A}
variable 	SFE equal ((-10584.7395640192--10597.6382170702)*${Cf})/${A}
variable 	SFE equal ((-10584.7395640192--10597.6382170702)*1.60217657e-16)/${A}
variable 	SFE equal ((-10584.7395640192--10597.6382170702)*1.60217657e-16)/1.42049829613936e-17
variable 	Efomj equal ${Ef}*${Cf}/${A}
variable 	Efomj equal -10584.7395640192*${Cf}/${A}
variable 	Efomj equal -10584.7395640192*1.60217657e-16/${A}
variable 	Efomj equal -10584.7395640192*1.60217657e-16/1.42049829613936e-17

####################################
print "Initial energy of atoms = ${Eo} eV"
Initial energy of atoms = -10597.6382170702 eV
print "Initial energy before twinning Efo = ${Ef} $Efomj" # in SFE in mJ/m^2"
Initial energy before twinning Efo = -10584.7395640192 -10584.7395640192fomj

#----------- for twin fault energy -----------------------
variable	Ndiscrt equal 30
variable    	i loop ${Ndiscrt}
variable    	i loop 30
label       	loop

variable 	xt_displace equal -1*(${latparam1}/sqrt(6)*${i}/${Ndiscrt})
variable 	xt_displace equal -1*(4.05000018187522/sqrt(6)*${i}/${Ndiscrt})
variable 	xt_displace equal -1*(4.05000018187522/sqrt(6)*30/${Ndiscrt})
variable 	xt_displace equal -1*(4.05000018187522/sqrt(6)*30/30)
variable 	Bxt_displace equal 1.0+${i}/${Ndiscrt}
variable 	Bxt_displace equal 1.0+30/${Ndiscrt}
variable 	Bxt_displace equal 1.0+30/30

displace_atoms 	top2 move ${xt_displace} 0.0 0.0 units box
displace_atoms 	top2 move -1.65340565062889 0.0 0.0 units box
Displacing atoms ...

fix 		1 all setforce 0 0 NULL
min_style 	cg
minimize 	0.0 1e-8 20000 20000
Per MPI rank memory allocation (min/avg/max) = 5.415 | 5.415 | 5.415 Mbytes
Step Temp PotEng c_eatoms Pxx Pyy Pzz Lx Ly Lz Fnorm 
     209            0   -10583.897   -10583.897   -7452.3083   -7452.3096   -468.71945     49.60217    28.637826    35.202089    1.8113202 
     210            0   -10584.197   -10584.197   -7434.2471   -7434.2475   -409.30749     49.60217    28.637826    35.202089   0.76880233 
     220            0    -10584.32    -10584.32   -7377.9379   -7377.9385   -381.81205     49.60217    28.637826    35.202089  0.067455044 
     230            0   -10584.324   -10584.324   -7201.7214    -7201.722    -29.62664     49.60217    28.637826    35.202089 0.0042520118 
     240            0   -10584.324   -10584.324   -7188.4164    -7188.417   -2.6392923     49.60217    28.637826    35.202089 0.0014267192 
     250            0   -10584.324   -10584.324   -7187.4604    -7187.461  -0.74459477     49.60217    28.637826    35.202089 0.0001296041 
     260            0   -10584.324   -10584.324   -7187.1184    -7187.119 -0.058563674     49.60217    28.637826    35.202089 1.2632082e-05 
     270            0   -10584.324   -10584.324   -7187.0927   -7187.0933 -0.0067290788     49.60217    28.637826    35.202089 4.0925341e-06 
     280            0   -10584.324   -10584.324     -7187.09   -7187.0906 -0.001819852     49.60217    28.637826    35.202089 2.7652967e-07 
     290            0   -10584.324   -10584.324   -7187.0892   -7187.0898 -0.000101252     49.60217    28.637826    35.202089 3.6260069e-08 
     300            0   -10584.324   -10584.324   -7187.0891   -7187.0897 -1.4474028e-05     49.60217    28.637826    35.202089 1.1963019e-08 
     302            0   -10584.324   -10584.324   -7187.0891   -7187.0897 5.3648045e-06     49.60217    28.637826    35.202089 9.0300327e-09 
Loop time of 0.253134 on 8 procs for 93 steps with 3200 atoms

99.3% CPU use with 8 MPI tasks x no OpenMP threads

Minimization stats:
  Stopping criterion = force tolerance
  Energy initial, next-to-last, final = 
     -10583.8973623089  -10584.3237308375  -10584.3237308375
  Force two-norm initial, final = 1.8113202 9.0300327e-09
  Force max component initial, final = 0.071593249 4.4936732e-10
  Final line search alpha, max atom move = 1.0000000 4.4936732e-10
  Iterations, force evaluations = 93 185

MPI task timing breakdown:
Section |  min time  |  avg time  |  max time  |%varavg| %total
---------------------------------------------------------------
Pair    | 0.20641    | 0.22183    | 0.23588    |   2.5 | 87.63
Neigh   | 0          | 0          | 0          |   0.0 |  0.00
Comm    | 0.011821   | 0.02612    | 0.041793   |   7.3 | 10.32
Output  | 0.00055784 | 0.00056729 | 0.00060575 |   0.0 |  0.22
Modify  | 0.00029933 | 0.00030905 | 0.00032582 |   0.0 |  0.12
Other   |            | 0.004309   |            |       |  1.70

Nlocal:        400.000 ave         404 max         394 min
Histogram: 1 0 0 0 1 0 3 0 2 1
Nghost:        1740.50 ave        1747 max        1737 min
Histogram: 1 1 1 2 1 1 0 0 0 1
Neighs:        26150.0 ave       28985 max       23310 min
Histogram: 4 0 0 0 0 0 0 0 1 3
FullNghs:       0.00000 ave           0 max           0 min
Histogram: 8 0 0 0 0 0 0 0 0 0

Total # of neighbors = 209200
Ave neighs/atom = 65.375000
Neighbor list builds = 0
Dangerous builds = 0

variable 	Eftwn equal "c_eatoms"
variable 	Eftwnmj equal ${Eftwn}*${Cf}/${A}
variable 	Eftwnmj equal -10584.3237308375*${Cf}/${A}
variable 	Eftwnmj equal -10584.3237308375*1.60217657e-16/${A}
variable 	Eftwnmj equal -10584.3237308375*1.60217657e-16/1.42049829613936e-17
variable 	TFEf equal ${Eftwnmj}-${Efomj}
variable 	TFEf equal -119380.329683825-${Efomj}
variable 	TFEf equal -119380.329683825--119385.019856158

print 		"displacement and TFE = ${Bxt_displace} ${TFEf}" # in SFE in mJ/m^2"
displacement and TFE = 2 4.69017233300838

next 		i
jump		TFE_displacement1.lmpin
label 		break
Total wall time: 0:00:25
